% Model:              Sample_ExBprobe_.mph
% Version:            COMSOL 6.3.0.290
% Date:               Mar 17 2026, 17:05
% Dimension:          3
% Nodes:              24321
% Expressions:        6
% Description:        x-coordinate, y-coordinate, z-coordinate, Magnetic flux density, x-component, Magnetic flux density, y-component, Magnetic flux density, z-component
% Length unit:        m
% x (m),y (m),z (m),mfnc.Bx (T),mfnc.By (T),mfnc.Bz (T)
-0.0050000,-0.0050000,-0.10000,-0.0045370,2.8963E-4,-4.0804E-5
-0.0040000,-0.0050000,-0.10000,-0.0046541,2.9179E-4,-4.2929E-5
-0.0030000,-0.0050000,-0.10000,-0.0047613,3.0732E-4,-3.4010E-5
-0.0020000,-0.0050000,-0.10000,-0.0049027,2.6958E-4,-2.5382E-5
-0.0010000,-0.0050000,-0.10000,-0.0050261,1.6696E-4,-1.7302E-5
-4.7434E-20,-0.0050000,-0.10000,-0.0050945,-1.2462E-5,9.3595E-6
0.0010000,-0.0050000,-0.10000,-0.0050238,-1.6738E-4,9.7671E-6
0.0020000,-0.0050000,-0.10000,-0.0049042,-2.5964E-4,4.5190E-5
0.0030000,-0.0050000,-0.10000,-0.0047588,-3.1019E-4,3.4409E-5
0.0040000,-0.0050000,-0.10000,-0.0046554,-2.9206E-4,4.3136E-5
0.0050000,-0.0050000,-0.10000,-0.0045362,-2.8865E-4,5.1068E-5
-0.0050000,-0.0040000,-0.10000,-0.0045049,3.0591E-4,-5.1471E-5
-0.0040000,-0.0040000,-0.10000,-0.0046089,3.6177E-4,-5.7507E-5
-0.0030000,-0.0040000,-0.10000,-0.0047607,4.1486E-4,-3.5268E-5
-0.0020000,-0.0040000,-0.10000,-0.0049676,4.2145E-4,-2.0453E-5
-0.0010000,-0.0040000,-0.10000,-0.0052051,2.8640E-4,-1.1631E-5
1.8974E-19,-0.0040000,-0.10000,-0.0053359,4.2196E-6,-4.5759E-7
0.0010000,-0.0040000,-0.10000,-0.0052070,-2.7128E-4,-1.3831E-5
0.0020000,-0.0040000,-0.10000,-0.0049711,-4.0529E-4,7.4225E-6
0.0030000,-0.0040000,-0.10000,-0.0047560,-4.1557E-4,3.7854E-5
0.0040000,-0.0040000,-0.10000,-0.0046067,-3.6171E-4,3.7918E-5
0.0050000,-0.0040000,-0.10000,-0.0045119,-2.9833E-4,6.5774E-5
-0.0050000,-0.0030000,-0.10000,-0.0044057,3.0094E-4,-7.1056E-5
-0.0040000,-0.0030000,-0.10000,-0.0045283,4.0182E-4,-4.5567E-5
-0.0030000,-0.0030000,-0.10000,-0.0046701,6.1519E-4,-7.9923E-5
-0.0020000,-0.0030000,-0.10000,-0.0049591,7.6225E-4,-1.4848E-5
-0.0010000,-0.0030000,-0.10000,-0.0054748,6.4208E-4,5.5492E-6
-1.5378E-20,-0.0030000,-0.10000,-0.0058445,-8.3522E-6,2.7575E-5
0.0010000,-0.0030000,-0.10000,-0.0054778,-5.9759E-4,8.0597E-7
0.0020000,-0.0030000,-0.10000,-0.0049713,-7.7388E-4,2.6151E-5
0.0030000,-0.0030000,-0.10000,-0.0046856,-6.2884E-4,5.0557E-5
0.0040000,-0.0030000,-0.10000,-0.0045207,-4.1385E-4,5.5900E-5
0.0050000,-0.0030000,-0.10000,-0.0044106,-3.0128E-4,6.4709E-5
-0.0050000,-0.0020000,-0.10000,-0.0043250,2.7147E-4,-6.0579E-5
-0.0040000,-0.0020000,-0.10000,-0.0043286,4.6617E-4,-4.3704E-5
-0.0030000,-0.0020000,-0.10000,-0.0043858,7.1399E-4,-8.4651E-6
-0.0020000,-0.0020000,-0.10000,-0.0046550,0.0012501,-1.9287E-5
-0.0010000,-0.0020000,-0.10000,-0.0056983,0.0013957,1.8137E-5
-6.7763E-21,-0.0020000,-0.10000,-0.0070124,6.8736E-5,2.4589E-4
0.0010000,-0.0020000,-0.10000,-0.0060521,-0.0017099,1.5272E-4
0.0020000,-0.0020000,-0.10000,-0.0046806,-0.0013171,1.9964E-5
0.0030000,-0.0020000,-0.10000,-0.0043718,-7.2399E-4,3.8047E-5
0.0040000,-0.0020000,-0.10000,-0.0043242,-4.6958E-4,3.2856E-5
0.0050000,-0.0020000,-0.10000,-0.0043158,-2.9660E-4,7.7551E-5
-0.0050000,-0.0010000,-0.10000,-0.0042502,1.6002E-4,-6.5559E-5
-0.0040000,-0.0010000,-0.10000,-0.0041046,3.0387E-4,-4.5593E-5
-0.0030000,-0.0010000,-0.10000,-0.0037588,5.7129E-4,-3.6654E-5
-0.0020000,-0.0010000,-0.10000,-0.0037123,0.0015370,-1.4790E-4
-0.0010000,-0.0010000,-0.10000,-0.0053670,0.0037861,6.3698E-5
-1.4997E-19,-0.0010000,-0.10000,-0.011508,-7.4544E-5,-9.4253E-5
0.0010000,-0.0010000,-0.10000,-0.0054031,-0.0037799,-5.5229E-5
0.0020000,-0.0010000,-0.10000,-0.0033831,-0.0013548,2.4153E-4
0.0030000,-0.0010000,-0.10000,-0.0038292,-6.2569E-4,2.5209E-5
0.0040000,-0.0010000,-0.10000,-0.0040823,-2.6186E-4,4.8518E-5
0.0050000,-0.0010000,-0.10000,-0.0042647,-1.5571E-4,5.1301E-5
-0.0050000,-1.6263E-19,-0.10000,-0.0041886,4.2646E-6,-5.6575E-5
-0.0040000,-3.7587E-20,-0.10000,-0.0039979,-1.1459E-5,-4.9552E-5
-0.0030000,3.0708E-21,-0.10000,-0.0035619,-1.2082E-5,-4.8828E-6
-0.0020000,-2.0329E-20,-0.10000,-0.0024369,-8.4690E-5,-5.8170E-4
-0.0010000,-6.3426E-20,-0.10000,-2.9964E-4,-3.6579E-4,3.2765E-5
2.7444E-19,4.7434E-19,-0.10000,-1.3112E-5,3.7429E-8,-2.4617E-7
0.0010000,-1.6664E-19,-0.10000,-1.2250E-5,2.1408E-6,8.8092E-6
0.0020000,-5.4210E-20,-0.10000,-0.0025160,-9.4720E-5,4.7310E-4
0.0030000,7.5560E-20,-0.10000,-0.0035295,-7.9725E-6,1.7683E-5
0.0040000,-9.8050E-21,-0.10000,-0.0039877,-1.2693E-5,4.4357E-5
0.0050000,-8.1315E-20,-0.10000,-0.0041585,-1.6908E-5,5.0283E-5
-0.0050000,0.0010000,-0.10000,-0.0042426,-1.6336E-4,-6.3816E-5
-0.0040000,0.0010000,-0.10000,-0.0040861,-2.7121E-4,-5.9291E-5
-0.0030000,0.0010000,-0.10000,-0.0037970,-6.4320E-4,-1.5773E-5
-0.0020000,0.0010000,-0.10000,-0.0036839,-0.0015940,-1.5226E-4
-0.0010000,0.0010000,-0.10000,-0.0056181,-0.0043986,7.9083E-5
1.8010E-19,0.0010000,-0.10000,-0.011418,-1.8789E-5,-1.7029E-4
0.0010000,0.0010000,-0.10000,-0.0053590,0.0037836,-7.4834E-5
0.0020000,0.0010000,-0.10000,-0.0037282,0.0014675,1.1210E-4
0.0030000,0.0010000,-0.10000,-0.0038298,6.1574E-4,3.4824E-5
0.0040000,0.0010000,-0.10000,-0.0040815,3.0289E-4,3.2940E-5
0.0050000,0.0010000,-0.10000,-0.0042439,1.5861E-4,7.0935E-5
-0.0050000,0.0020000,-0.10000,-0.0043479,-2.7841E-4,-4.6620E-5
-0.0040000,0.0020000,-0.10000,-0.0043241,-4.4325E-4,-3.5139E-5
-0.0030000,0.0020000,-0.10000,-0.0043280,-7.9422E-4,6.6798E-6
-0.0020000,0.0020000,-0.10000,-0.0046401,-0.0012912,-1.6542E-5
-0.0010000,0.0020000,-0.10000,-0.0058664,-0.0016659,-9.4833E-5
-2.7105E-20,0.0020000,-0.10000,-0.0069464,-1.4274E-4,3.0898E-4
0.0010000,0.0020000,-0.10000,-0.0060271,0.0016441,1.2283E-4
0.0020000,0.0020000,-0.10000,-0.0046916,0.0012803,3.6095E-6
0.0030000,0.0020000,-0.10000,-0.0043689,7.4243E-4,3.3728E-5
0.0040000,0.0020000,-0.10000,-0.0043310,4.5457E-4,2.8672E-5
0.0050000,0.0020000,-0.10000,-0.0043386,2.6766E-4,5.8638E-5
-0.0050000,0.0030000,-0.10000,-0.0044303,-3.0303E-4,-6.3859E-5
-0.0040000,0.0030000,-0.10000,-0.0045138,-4.3530E-4,-6.0940E-5
-0.0030000,0.0030000,-0.10000,-0.0046395,-5.8726E-4,-3.7358E-5
-0.0020000,0.0030000,-0.10000,-0.0049828,-7.4110E-4,-2.3211E-5
-0.0010000,0.0030000,-0.10000,-0.0054937,-6.2927E-4,-1.0615E-6
-2.7105E-20,0.0030000,-0.10000,-0.0058500,-1.1745E-5,1.0458E-6
0.0010000,0.0030000,-0.10000,-0.0054857,5.4110E-4,-1.3485E-5
0.0020000,0.0030000,-0.10000,-0.0049921,7.2716E-4,3.4020E-5
0.0030000,0.0030000,-0.10000,-0.0046241,5.7765E-4,1.5164E-5
0.0040000,0.0030000,-0.10000,-0.0045230,4.0542E-4,5.3130E-5
0.0050000,0.0030000,-0.10000,-0.0044330,3.0582E-4,5.8842E-5
-0.0050000,0.0040000,-0.10000,-0.0045321,-2.8671E-4,-9.0770E-5
-0.0040000,0.0040000,-0.10000,-0.0046082,-3.5507E-4,-3.2015E-5
-0.0030000,0.0040000,-0.10000,-0.0047522,-4.3007E-4,-2.9796E-5
-0.0020000,0.0040000,-0.10000,-0.0049576,-4.1779E-4,-1.5820E-5
-0.0010000,0.0040000,-0.10000,-0.0051838,-2.9306E-4,-2.1694E-5
7.5856E-20,0.0040000,-0.10000,-0.0053049,-1.4783E-5,-2.4845E-6
0.0010000,0.0040000,-0.10000,-0.0052034,3.1993E-4,1.7048E-5
0.0020000,0.0040000,-0.10000,-0.0049737,4.1933E-4,7.9767E-6
0.0030000,0.0040000,-0.10000,-0.0047893,4.4108E-4,7.6170E-5
0.0040000,0.0040000,-0.10000,-0.0046138,3.7497E-4,5.0243E-5
0.0050000,0.0040000,-0.10000,-0.0045350,2.9192E-4,9.6020E-5
-0.0050000,0.0050000,-0.10000,-0.0045295,-3.0292E-4,-3.9115E-5
-0.0040000,0.0050000,-0.10000,-0.0046512,-2.9609E-4,-4.9284E-5
-0.0030000,0.0050000,-0.10000,-0.0047912,-2.9225E-4,-4.4222E-5
-0.0020000,0.0050000,-0.10000,-0.0049061,-2.5476E-4,-3.0972E-5
-0.0010000,0.0050000,-0.10000,-0.0050210,-1.7090E-4,-1.4524E-5
2.7105E-19,0.0050000,-0.10000,-0.0050740,-5.7114E-7,-5.3630E-6
0.0010000,0.0050000,-0.10000,-0.0050211,1.6313E-4,9.2232E-6
0.0020000,0.0050000,-0.10000,-0.0049155,2.7246E-4,2.1080E-5
0.0030000,0.0050000,-0.10000,-0.0047646,3.0490E-4,3.0468E-5
0.0040000,0.0050000,-0.10000,-0.0046617,3.0671E-4,5.4626E-5
0.0050000,0.0050000,-0.10000,-0.0045352,2.9184E-4,3.5779E-5
-0.0050000,-0.0050000,-0.099000,-5.3614E-6,3.0873E-7,2.8830E-6
-0.0040000,-0.0050000,-0.099000,-5.4645E-6,3.5402E-7,2.2127E-6
-0.0030000,-0.0050000,-0.099000,-5.6167E-6,3.5712E-7,1.5981E-6
-0.0020000,-0.0050000,-0.099000,-5.7613E-6,3.1204E-7,1.0234E-6
-0.0010000,-0.0050000,-0.099000,-5.9422E-6,2.0543E-7,4.9134E-7
-4.8052E-20,-0.0050000,-0.099000,-5.9527E-6,-1.1414E-8,2.0307E-8
0.0010000,-0.0050000,-0.099000,-5.9114E-6,-1.8513E-7,-4.9748E-7
0.0020000,-0.0050000,-0.099000,-5.7622E-6,-2.8215E-7,-1.0496E-6
0.0030000,-0.0050000,-0.099000,-5.6130E-6,-3.7917E-7,-1.6017E-6
0.0040000,-0.0050000,-0.099000,-5.4694E-6,-3.6505E-7,-2.2240E-6
0.0050000,-0.0050000,-0.099000,-5.3503E-6,-3.1248E-7,-2.8579E-6
-0.0050000,-0.0040000,-0.099000,-5.3043E-6,3.5722E-7,2.7856E-6
-0.0040000,-0.0040000,-0.099000,-5.4146E-6,4.3145E-7,2.1126E-6
-0.0030000,-0.0040000,-0.099000,-5.6081E-6,5.1490E-7,1.4740E-6
-0.0020000,-0.0040000,-0.099000,-5.8359E-6,5.3033E-7,8.9260E-7
-0.0010000,-0.0040000,-0.099000,-6.1142E-6,3.0664E-7,4.0755E-7
-8.6221E-20,-0.0040000,-0.099000,-6.2386E-6,-2.1198E-8,1.2522E-8
0.0010000,-0.0040000,-0.099000,-6.1216E-6,-3.3901E-7,-3.7429E-7
0.0020000,-0.0040000,-0.099000,-5.8790E-6,-5.4861E-7,-9.1904E-7
0.0030000,-0.0040000,-0.099000,-5.5624E-6,-5.1438E-7,-1.4503E-6
0.0040000,-0.0040000,-0.099000,-5.4169E-6,-4.1338E-7,-2.1333E-6
0.0050000,-0.0040000,-0.099000,-5.2859E-6,-3.5755E-7,-2.8731E-6
-0.0050000,-0.0030000,-0.099000,-5.2175E-6,3.5919E-7,2.7038E-6
-0.0040000,-0.0030000,-0.099000,-5.2881E-6,4.7809E-7,2.0012E-6
-0.0030000,-0.0030000,-0.099000,-5.4765E-6,6.7667E-7,1.2601E-6
-0.0020000,-0.0030000,-0.099000,-5.8528E-6,8.3547E-7,5.6982E-7
-0.0010000,-0.0030000,-0.099000,-6.4575E-6,6.7943E-7,1.1913E-7
0.0000,-0.0030000,-0.099000,-6.8524E-6,3.2945E-8,-1.4331E-8
0.0010000,-0.0030000,-0.099000,-6.4889E-6,-7.6727E-7,-2.3430E-7
0.0020000,-0.0030000,-0.099000,-5.8276E-6,-8.8230E-7,-5.8891E-7
0.0030000,-0.0030000,-0.099000,-5.4527E-6,-6.6633E-7,-1.2727E-6
0.0040000,-0.0030000,-0.099000,-5.2908E-6,-4.9371E-7,-1.9457E-6
0.0050000,-0.0030000,-0.099000,-5.2158E-6,-3.5083E-7,-2.7112E-6
-0.0050000,-0.0020000,-0.099000,-5.0936E-6,3.0935E-7,2.5486E-6
-0.0040000,-0.0020000,-0.099000,-5.0703E-6,5.0243E-7,1.8287E-6
-0.0030000,-0.0020000,-0.099000,-5.1009E-6,8.3351E-7,8.7827E-7
-0.0020000,-0.0020000,-0.099000,-5.3966E-6,1.5246E-6,-3.4270E-7
-0.0010000,-0.0020000,-0.099000,-6.9332E-6,2.2068E-6,-8.0222E-7
1.6941E-21,-0.0020000,-0.099000,-8.7294E-6,4.6483E-7,3.5026E-7
0.0010000,-0.0020000,-0.099000,-7.1252E-6,-2.1918E-6,9.4520E-7
0.0020000,-0.0020000,-0.099000,-5.3974E-6,-1.6117E-6,1.9826E-7
0.0030000,-0.0020000,-0.099000,-5.1274E-6,-9.1684E-7,-1.0733E-6
0.0040000,-0.0020000,-0.099000,-5.0794E-6,-4.9876E-7,-1.7504E-6
0.0050000,-0.0020000,-0.099000,-5.0960E-6,-3.2775E-7,-2.6319E-6
-0.0050000,-0.0010000,-0.099000,-4.9505E-6,1.8361E-7,2.4707E-6
-0.0040000,-0.0010000,-0.099000,-4.8187E-6,3.4064E-7,1.6059E-6
-0.0030000,-0.0010000,-0.099000,-4.5676E-6,6.9397E-7,5.6334E-7
-0.0020000,-0.0010000,-0.099000,-3.7180E-6,2.2334E-6,-2.1485E-6
-0.0010000,-0.0010000,-0.099000,-8.7231E-6,8.1970E-7,-2.4283E-6
-5.7598E-20,-0.0010000,-0.099000,-9.5352E-6,-1.1049E-8,1.4754E-7
0.0010000,-0.0010000,-0.099000,-8.5728E-6,-6.1615E-7,2.3629E-6
0.0020000,-0.0010000,-0.099000,-3.6192E-6,-2.1046E-6,1.5854E-6
0.0030000,-0.0010000,-0.099000,-4.4868E-6,-7.1152E-7,-5.3154E-7
0.0040000,-0.0010000,-0.099000,-4.8132E-6,-3.5208E-7,-1.5949E-6
0.0050000,-0.0010000,-0.099000,-4.9764E-6,-1.8711E-7,-2.5249E-6
-0.0050000,-1.6263E-19,-0.099000,-4.9179E-6,-1.4524E-9,2.4566E-6
-0.0040000,-6.8487E-21,-0.099000,-4.6805E-6,2.1398E-9,1.5242E-6
-0.0030000,-2.7105E-20,-0.099000,-4.1160E-6,4.0747E-10,-7.4186E-8
-0.0020000,5.5505E-20,-0.099000,-2.2131E-6,-1.8687E-7,-2.3940E-6
-0.0010000,-8.4247E-21,-0.099000,-8.8585E-6,-1.2856E-7,-2.7744E-6
2.7105E-20,2.7105E-20,-0.099000,-9.8349E-6,1.9489E-8,-1.0590E-7
0.0010000,-1.3553E-20,-0.099000,-8.9342E-6,-6.4659E-8,2.7405E-6
0.0020000,-1.5407E-32,-0.099000,-1.6833E-6,1.3606E-8,2.9117E-6
0.0030000,5.4210E-20,-0.099000,-4.5524E-6,-2.3101E-8,-3.6336E-7
0.0040000,-1.2197E-19,-0.099000,-4.6416E-6,1.0185E-8,-1.5017E-6
0.0050000,-1.8129E-19,-0.099000,-4.9030E-6,-2.2901E-8,-2.4389E-6
-0.0050000,0.0010000,-0.099000,-4.9841E-6,-2.0550E-7,2.5113E-6
-0.0040000,0.0010000,-0.099000,-4.8161E-6,-3.4642E-7,1.6646E-6
-0.0030000,0.0010000,-0.099000,-4.5477E-6,-7.4358E-7,3.7976E-7
-0.0020000,0.0010000,-0.099000,-3.6559E-6,-1.6010E-6,-1.7383E-6
-0.0010000,0.0010000,-0.099000,-8.6349E-6,-6.3859E-7,-2.4595E-6
-1.3553E-19,0.0010000,-0.099000,-9.5669E-6,7.0378E-9,3.4486E-8
0.0010000,0.0010000,-0.099000,-8.4858E-6,5.8892E-7,2.4577E-6
0.0020000,0.0010000,-0.099000,-3.6563E-6,2.3028E-6,1.5673E-6
0.0030000,0.0010000,-0.099000,-4.5210E-6,7.4256E-7,-4.6063E-7
0.0040000,0.0010000,-0.099000,-4.8355E-6,3.5408E-7,-1.6048E-6
0.0050000,0.0010000,-0.099000,-4.9637E-6,1.9168E-7,-2.4879E-6
-0.0050000,0.0020000,-0.099000,-5.0865E-6,-3.1477E-7,2.5672E-6
-0.0040000,0.0020000,-0.099000,-5.0784E-6,-5.0502E-7,1.8018E-6
-0.0030000,0.0020000,-0.099000,-5.1337E-6,-9.0599E-7,9.4307E-7
-0.0020000,0.0020000,-0.099000,-5.4581E-6,-1.6460E-6,-3.1133E-7
-0.0010000,0.0020000,-0.099000,-6.9584E-6,-2.1724E-6,-9.5862E-7
4.1909E-19,0.0020000,-0.099000,-8.6208E-6,4.5017E-7,5.8939E-7
0.0010000,0.0020000,-0.099000,-6.5484E-6,2.1976E-6,1.0325E-6
0.0020000,0.0020000,-0.099000,-5.4419E-6,1.8023E-6,3.0110E-7
0.0030000,0.0020000,-0.099000,-5.1289E-6,9.6540E-7,-8.1408E-7
0.0040000,0.0020000,-0.099000,-5.0879E-6,5.2593E-7,-1.8102E-6
0.0050000,0.0020000,-0.099000,-5.0745E-6,3.2207E-7,-2.5437E-6
-0.0050000,0.0030000,-0.099000,-5.2295E-6,-3.8427E-7,2.6978E-6
-0.0040000,0.0030000,-0.099000,-5.2938E-6,-5.1682E-7,2.0048E-6
-0.0030000,0.0030000,-0.099000,-5.4113E-6,-7.4202E-7,1.2509E-6
-0.0020000,0.0030000,-0.099000,-5.8253E-6,-8.7659E-7,5.6881E-7
-0.0010000,0.0030000,-0.099000,-6.4372E-6,-7.2177E-7,2.1977E-7
6.9397E-20,0.0030000,-0.099000,-6.7665E-6,3.9165E-8,-1.5672E-7
0.0010000,0.0030000,-0.099000,-6.3891E-6,7.4291E-7,-2.9472E-8
0.0020000,0.0030000,-0.099000,-5.8168E-6,8.8040E-7,-5.8563E-7
0.0030000,0.0030000,-0.099000,-5.4758E-6,6.7808E-7,-1.2435E-6
0.0040000,0.0030000,-0.099000,-5.2776E-6,4.9074E-7,-1.9477E-6
0.0050000,0.0030000,-0.099000,-5.2154E-6,3.5159E-7,-2.7350E-6
-0.0050000,0.0040000,-0.099000,-5.2796E-6,-3.3675E-7,2.7990E-6
-0.0040000,0.0040000,-0.099000,-5.4097E-6,-4.2121E-7,2.1124E-6
-0.0030000,0.0040000,-0.099000,-5.5759E-6,-5.0531E-7,1.4796E-6
-0.0020000,0.0040000,-0.099000,-5.8249E-6,-5.0888E-7,9.8123E-7
-0.0010000,0.0040000,-0.099000,-6.1384E-6,-3.3071E-7,3.9533E-7
1.8575E-20,0.0040000,-0.099000,-6.2254E-6,-5.1487E-8,1.0066E-8
0.0010000,0.0040000,-0.099000,-6.1158E-6,3.5573E-7,-3.9127E-7
0.0020000,0.0040000,-0.099000,-5.8439E-6,5.0285E-7,-8.7785E-7
0.0030000,0.0040000,-0.099000,-5.6037E-6,5.2134E-7,-1.4683E-6
0.0040000,0.0040000,-0.099000,-5.4658E-6,4.0294E-7,-2.0833E-6
0.0050000,0.0040000,-0.099000,-5.3107E-6,3.6814E-7,-2.8421E-6
-0.0050000,0.0050000,-0.099000,-5.3879E-6,-3.7781E-7,2.9525E-6
-0.0040000,0.0050000,-0.099000,-5.4654E-6,-3.6142E-7,2.2811E-6
-0.0030000,0.0050000,-0.099000,-5.6096E-6,-3.5147E-7,1.6016E-6
-0.0020000,0.0050000,-0.099000,-5.7562E-6,-2.8610E-7,1.0319E-6
-0.0010000,0.0050000,-0.099000,-5.9230E-6,-2.0932E-7,4.8752E-7
-5.4210E-20,0.0050000,-0.099000,-5.9528E-6,8.2211E-10,1.6864E-8
0.0010000,0.0050000,-0.099000,-5.9334E-6,2.0327E-7,-5.1869E-7
0.0020000,0.0050000,-0.099000,-5.7765E-6,3.0120E-7,-1.0691E-6
0.0030000,0.0050000,-0.099000,-5.5943E-6,3.5378E-7,-1.6180E-6
0.0040000,0.0050000,-0.099000,-5.4417E-6,3.5566E-7,-2.2284E-6
0.0050000,0.0050000,-0.099000,-5.3334E-6,3.2060E-7,-2.9303E-6
-0.0050000,-0.0050000,-0.098000,-6.0681E-6,1.5966E-7,2.8639E-6
-0.0040000,-0.0050000,-0.098000,-6.0858E-6,2.7544E-7,2.2424E-6
-0.0030000,-0.0050000,-0.098000,-6.1890E-6,2.9222E-7,1.6436E-6
-0.0020000,-0.0050000,-0.098000,-6.3259E-6,2.4231E-7,1.0597E-6
-0.0010000,-0.0050000,-0.098000,-6.4276E-6,1.3101E-7,5.2633E-7
-1.0842E-19,-0.0050000,-0.098000,-6.4604E-6,-7.8972E-9,-1.7098E-9
0.0010000,-0.0050000,-0.098000,-6.4407E-6,-1.3796E-7,-5.2345E-7
0.0020000,-0.0050000,-0.098000,-6.3367E-6,-2.2368E-7,-1.0939E-6
0.0030000,-0.0050000,-0.098000,-6.2035E-6,-2.6978E-7,-1.6462E-6
0.0040000,-0.0050000,-0.098000,-6.1033E-6,-2.7434E-7,-2.2499E-6
0.0050000,-0.0050000,-0.098000,-6.0411E-6,-2.0548E-7,-2.8676E-6
-0.0050000,-0.0040000,-0.098000,-5.9594E-6,2.6850E-7,2.7898E-6
-0.0040000,-0.0040000,-0.098000,-6.0376E-6,3.4014E-7,2.1696E-6
-0.0030000,-0.0040000,-0.098000,-6.2247E-6,3.5773E-7,1.5531E-6
-0.0020000,-0.0040000,-0.098000,-6.3738E-6,3.4469E-7,9.6597E-7
-0.0010000,-0.0040000,-0.098000,-6.5590E-6,2.2514E-7,4.5967E-7
5.4210E-20,-0.0040000,-0.098000,-6.6451E-6,1.8572E-8,-8.1907E-9
0.0010000,-0.0040000,-0.098000,-6.5411E-6,-2.4286E-7,-4.4353E-7
0.0020000,-0.0040000,-0.098000,-6.4136E-6,-3.5185E-7,-9.5551E-7
0.0030000,-0.0040000,-0.098000,-6.2030E-6,-3.4789E-7,-1.5459E-6
0.0040000,-0.0040000,-0.098000,-6.0275E-6,-3.1395E-7,-2.1401E-6
0.0050000,-0.0040000,-0.098000,-5.9670E-6,-2.5871E-7,-2.7815E-6
-0.0050000,-0.0030000,-0.098000,-5.9038E-6,2.9002E-7,2.7149E-6
-0.0040000,-0.0030000,-0.098000,-5.9649E-6,3.2014E-7,2.0644E-6
-0.0030000,-0.0030000,-0.098000,-6.1326E-6,4.6530E-7,1.3637E-6
-0.0020000,-0.0030000,-0.098000,-6.4374E-6,4.7627E-7,7.5210E-7
-0.0010000,-0.0030000,-0.098000,-6.8640E-6,3.3211E-7,2.7953E-7
1.3553E-20,-0.0030000,-0.098000,-6.8724E-6,-2.1902E-8,-5.5879E-8
0.0010000,-0.0030000,-0.098000,-6.8157E-6,-4.3559E-7,-2.6288E-7
0.0020000,-0.0030000,-0.098000,-6.4645E-6,-5.2029E-7,-7.5434E-7
0.0030000,-0.0030000,-0.098000,-6.1567E-6,-4.8073E-7,-1.3846E-6
0.0040000,-0.0030000,-0.098000,-5.9881E-6,-3.9230E-7,-2.0461E-6
0.0050000,-0.0030000,-0.098000,-5.8950E-6,-2.8677E-7,-2.7266E-6
-0.0050000,-0.0020000,-0.098000,-5.8498E-6,2.6289E-7,2.6881E-6
-0.0040000,-0.0020000,-0.098000,-5.8444E-6,3.5964E-7,1.9225E-6
-0.0030000,-0.0020000,-0.098000,-5.9581E-6,4.5571E-7,1.0862E-6
-0.0020000,-0.0020000,-0.098000,-6.4471E-6,6.5359E-7,2.8199E-7
-0.0010000,-0.0020000,-0.098000,-7.4378E-6,5.9550E-7,-2.4293E-7
2.7105E-20,-0.0020000,-0.098000,-7.3810E-6,-4.6300E-9,-8.1542E-8
0.0010000,-0.0020000,-0.098000,-7.1048E-6,-4.1992E-7,-1.1403E-7
0.0020000,-0.0020000,-0.098000,-6.3263E-6,-6.2356E-7,-2.0684E-7
0.0030000,-0.0020000,-0.098000,-5.9775E-6,-4.9572E-7,-1.1085E-6
0.0040000,-0.0020000,-0.098000,-5.8642E-6,-3.3537E-7,-1.9226E-6
0.0050000,-0.0020000,-0.098000,-5.8094E-6,-2.3225E-7,-2.6495E-6
-0.0050000,-0.0010000,-0.098000,-5.7381E-6,1.3663E-7,2.6110E-6
-0.0040000,-0.0010000,-0.098000,-5.8032E-6,2.2426E-7,1.8010E-6
-0.0030000,-0.0010000,-0.098000,-5.8399E-6,4.0420E-7,7.3247E-7
-0.0020000,-0.0010000,-0.098000,-6.2401E-6,2.0776E-7,-6.7297E-8
-0.0010000,-0.0010000,-0.098000,-7.7008E-6,2.5523E-7,-6.9905E-7
5.2516E-20,-0.0010000,-0.098000,-8.0078E-6,-6.1657E-8,-1.3985E-8
0.0010000,-0.0010000,-0.098000,-7.4425E-6,-3.2763E-7,5.5907E-7
0.0020000,-0.0010000,-0.098000,-6.3903E-6,-5.3705E-7,2.5365E-7
0.0030000,-0.0010000,-0.098000,-5.8920E-6,-4.3140E-7,-7.1679E-7
0.0040000,-0.0010000,-0.098000,-5.8548E-6,-2.8903E-7,-1.8150E-6
0.0050000,-0.0010000,-0.098000,-5.7346E-6,-1.3527E-7,-2.5894E-6
-0.0050000,1.2197E-19,-0.098000,-5.7182E-6,1.0662E-8,2.5806E-6
-0.0040000,1.3553E-19,-0.098000,-5.6565E-6,-1.7554E-8,1.7449E-6
-0.0030000,-8.1315E-20,-0.098000,-5.7959E-6,-1.6629E-8,6.3319E-7
-0.0020000,-1.3553E-20,-0.098000,-6.2744E-6,-1.0414E-7,-5.4616E-7
-0.0010000,-2.7105E-20,-0.098000,-7.6676E-6,-1.1765E-8,-7.7475E-7
2.6893E-20,1.2176E-19,-0.098000,-8.4524E-6,1.1447E-8,-1.2252E-7
0.0010000,0.0000,-0.098000,-7.6335E-6,-1.3185E-8,7.9114E-7
0.0020000,2.0329E-20,-0.098000,-6.5143E-6,1.0898E-7,1.8822E-7
0.0030000,5.4210E-20,-0.098000,-5.7949E-6,-1.9571E-9,-6.2417E-7
0.0040000,3.3881E-20,-0.098000,-5.6995E-6,-1.8825E-8,-1.7349E-6
0.0050000,-3.3881E-20,-0.098000,-5.7577E-6,3.8219E-8,-2.5969E-6
-0.0050000,0.0010000,-0.098000,-5.7384E-6,-1.5376E-7,2.5764E-6
-0.0040000,0.0010000,-0.098000,-5.7447E-6,-2.1675E-7,1.7727E-6
-0.0030000,0.0010000,-0.098000,-5.8075E-6,-3.5216E-7,7.6647E-7
-0.0020000,0.0010000,-0.098000,-6.4566E-6,-4.4113E-7,-3.6028E-7
-0.0010000,0.0010000,-0.098000,-7.5945E-6,-4.8516E-7,-4.6177E-7
0.0000,0.0010000,-0.098000,-8.0820E-6,-1.3652E-7,-1.1142E-9
0.0010000,0.0010000,-0.098000,-7.6353E-6,3.6460E-7,7.1657E-7
0.0020000,0.0010000,-0.098000,-6.0844E-6,7.6918E-7,-8.1251E-8
0.0030000,0.0010000,-0.098000,-5.8015E-6,4.2785E-7,-8.1833E-7
0.0040000,0.0010000,-0.098000,-5.7447E-6,2.0537E-7,-1.7941E-6
0.0050000,0.0010000,-0.098000,-5.7503E-6,1.4905E-7,-2.6051E-6
-0.0050000,0.0020000,-0.098000,-5.8160E-6,-2.0728E-7,2.6725E-6
-0.0040000,0.0020000,-0.098000,-5.8753E-6,-3.5260E-7,1.9150E-6
-0.0030000,0.0020000,-0.098000,-5.9930E-6,-5.2002E-7,1.1288E-6
-0.0020000,0.0020000,-0.098000,-6.4953E-6,-6.6387E-7,2.2612E-7
-0.0010000,0.0020000,-0.098000,-7.0697E-6,-5.7402E-7,-2.4466E-7
0.0000,0.0020000,-0.098000,-7.5328E-6,-1.8094E-8,-3.5799E-9
0.0010000,0.0020000,-0.098000,-6.9575E-6,6.0385E-7,2.2924E-7
0.0020000,0.0020000,-0.098000,-6.4586E-6,6.2842E-7,-3.0219E-7
0.0030000,0.0020000,-0.098000,-6.0553E-6,5.0493E-7,-1.1334E-6
0.0040000,0.0020000,-0.098000,-5.8584E-6,3.8430E-7,-1.9172E-6
0.0050000,0.0020000,-0.098000,-5.8405E-6,2.2658E-7,-2.6790E-6
-0.0050000,0.0030000,-0.098000,-5.8720E-6,-2.7724E-7,2.7319E-6
-0.0040000,0.0030000,-0.098000,-5.9918E-6,-3.6645E-7,2.0625E-6
-0.0030000,0.0030000,-0.098000,-6.1585E-6,-4.4218E-7,1.3753E-6
-0.0020000,0.0030000,-0.098000,-6.4449E-6,-4.7850E-7,7.4272E-7
-0.0010000,0.0030000,-0.098000,-6.8080E-6,-3.8849E-7,2.6047E-7
-5.4210E-20,0.0030000,-0.098000,-6.9420E-6,3.5249E-8,2.5225E-8
0.0010000,0.0030000,-0.098000,-6.7199E-6,2.6832E-7,-3.5961E-7
0.0020000,0.0030000,-0.098000,-6.4977E-6,5.8291E-7,-7.4246E-7
0.0030000,0.0030000,-0.098000,-6.1166E-6,4.5963E-7,-1.3761E-6
0.0040000,0.0030000,-0.098000,-5.9817E-6,3.3233E-7,-2.0901E-6
0.0050000,0.0030000,-0.098000,-5.9044E-6,2.6878E-7,-2.7302E-6
-0.0050000,0.0040000,-0.098000,-5.9707E-6,-2.4374E-7,2.7998E-6
-0.0040000,0.0040000,-0.098000,-6.0402E-6,-3.2430E-7,2.1560E-6
-0.0030000,0.0040000,-0.098000,-6.1876E-6,-3.7100E-7,1.5346E-6
-0.0020000,0.0040000,-0.098000,-6.3746E-6,-2.9645E-7,9.4330E-7
-0.0010000,0.0040000,-0.098000,-6.6002E-6,-2.3888E-7,4.2744E-7
-1.3553E-20,0.0040000,-0.098000,-6.6807E-6,1.7303E-8,-1.4418E-8
0.0010000,0.0040000,-0.098000,-6.5764E-6,2.1903E-7,-4.4633E-7
0.0020000,0.0040000,-0.098000,-6.3602E-6,3.5713E-7,-9.2343E-7
0.0030000,0.0040000,-0.098000,-6.2028E-6,3.5178E-7,-1.5603E-6
0.0040000,0.0040000,-0.098000,-6.0393E-6,3.2005E-7,-2.1740E-6
0.0050000,0.0040000,-0.098000,-5.9914E-6,2.4927E-7,-2.7774E-6
-0.0050000,0.0050000,-0.098000,-6.0361E-6,-2.1316E-7,2.8420E-6
-0.0040000,0.0050000,-0.098000,-6.1105E-6,-2.6606E-7,2.2338E-6
-0.0030000,0.0050000,-0.098000,-6.1965E-6,-2.7989E-7,1.6349E-6
-0.0020000,0.0050000,-0.098000,-6.3376E-6,-2.3540E-7,1.0456E-6
-0.0010000,0.0050000,-0.098000,-6.4285E-6,-1.4628E-7,5.0563E-7
-2.7105E-20,0.0050000,-0.098000,-6.4477E-6,-1.4192E-8,-2.5395E-8
0.0010000,0.0050000,-0.098000,-6.4373E-6,1.5493E-7,-5.2343E-7
0.0020000,0.0050000,-0.098000,-6.3346E-6,2.4249E-7,-1.0538E-6
0.0030000,0.0050000,-0.098000,-6.1700E-6,2.8638E-7,-1.6336E-6
0.0040000,0.0050000,-0.098000,-6.0998E-6,2.6959E-7,-2.2322E-6
0.0050000,0.0050000,-0.098000,-6.0200E-6,2.5975E-7,-2.8759E-6
-0.0050000,-0.0050000,-0.097000,-6.5996E-6,2.2090E-7,2.8220E-6
-0.0040000,-0.0050000,-0.097000,-6.7095E-6,1.8947E-7,2.2718E-6
-0.0030000,-0.0050000,-0.097000,-6.7694E-6,2.0684E-7,1.6839E-6
-0.0020000,-0.0050000,-0.097000,-6.8859E-6,1.6682E-7,1.1001E-6
-0.0010000,-0.0050000,-0.097000,-6.9795E-6,1.0926E-7,5.4531E-7
0.0000,-0.0050000,-0.097000,-6.9826E-6,1.3968E-8,-6.8796E-9
0.0010000,-0.0050000,-0.097000,-6.9648E-6,-1.0525E-7,-5.3931E-7
0.0020000,-0.0050000,-0.097000,-6.8905E-6,-1.7575E-7,-1.1065E-6
0.0030000,-0.0050000,-0.097000,-6.7836E-6,-2.1363E-7,-1.6857E-6
0.0040000,-0.0050000,-0.097000,-6.6793E-6,-2.1997E-7,-2.2735E-6
0.0050000,-0.0050000,-0.097000,-6.6041E-6,-2.1091E-7,-2.8225E-6
-0.0050000,-0.0040000,-0.097000,-6.5854E-6,2.7263E-7,2.8701E-6
-0.0040000,-0.0040000,-0.097000,-6.6776E-6,2.5493E-7,2.2034E-6
-0.0030000,-0.0040000,-0.097000,-6.7998E-6,2.6601E-7,1.6018E-6
-0.0020000,-0.0040000,-0.097000,-6.9446E-6,2.2964E-7,1.0401E-6
-0.0010000,-0.0040000,-0.097000,-7.1132E-6,1.5437E-7,5.1530E-7
-2.4395E-19,-0.0040000,-0.097000,-7.1131E-6,-3.4479E-8,-2.5175E-8
0.0010000,-0.0040000,-0.097000,-7.0492E-6,-1.4072E-7,-4.9122E-7
0.0020000,-0.0040000,-0.097000,-6.9516E-6,-2.3348E-7,-1.0509E-6
0.0030000,-0.0040000,-0.097000,-6.7879E-6,-2.7372E-7,-1.6372E-6
0.0040000,-0.0040000,-0.097000,-6.6727E-6,-2.5993E-7,-2.2373E-6
0.0050000,-0.0040000,-0.097000,-6.5816E-6,-2.2049E-7,-2.8396E-6
-0.0050000,-0.0030000,-0.097000,-6.5340E-6,2.1887E-7,2.8182E-6
-0.0040000,-0.0030000,-0.097000,-6.6562E-6,2.6189E-7,2.1362E-6
-0.0030000,-0.0030000,-0.097000,-6.7713E-6,2.9426E-7,1.5159E-6
-0.0020000,-0.0030000,-0.097000,-7.0327E-6,2.8713E-7,9.2624E-7
-0.0010000,-0.0030000,-0.097000,-7.1414E-6,1.5188E-7,3.7770E-7
6.7763E-21,-0.0030000,-0.097000,-7.2742E-6,2.1076E-8,-5.1998E-8
0.0010000,-0.0030000,-0.097000,-7.2008E-6,-1.4242E-7,-4.7304E-7
0.0020000,-0.0030000,-0.097000,-7.0775E-6,-1.5775E-7,-9.1757E-7
0.0030000,-0.0030000,-0.097000,-6.8070E-6,-2.6649E-7,-1.5413E-6
0.0040000,-0.0030000,-0.097000,-6.6658E-6,-2.6555E-7,-2.1695E-6
0.0050000,-0.0030000,-0.097000,-6.5438E-6,-2.3296E-7,-2.8175E-6
-0.0050000,-0.0020000,-0.097000,-6.4749E-6,1.8967E-7,2.7675E-6
-0.0040000,-0.0020000,-0.097000,-6.6028E-6,2.2755E-7,2.0642E-6
-0.0030000,-0.0020000,-0.097000,-6.7969E-6,2.8731E-7,1.3895E-6
-0.0020000,-0.0020000,-0.097000,-7.0371E-6,2.5710E-7,7.8816E-7
-0.0010000,-0.0020000,-0.097000,-7.3880E-6,1.8255E-7,2.8222E-7
8.1315E-20,-0.0020000,-0.097000,-7.4770E-6,3.6458E-8,-1.9947E-8
0.0010000,-0.0020000,-0.097000,-7.3198E-6,-2.8874E-7,-2.3831E-7
0.0020000,-0.0020000,-0.097000,-7.0584E-6,-2.7648E-7,-7.2911E-7
0.0030000,-0.0020000,-0.097000,-6.7854E-6,-2.9761E-7,-1.4039E-6
0.0040000,-0.0020000,-0.097000,-6.6026E-6,-2.1264E-7,-2.1052E-6
0.0050000,-0.0020000,-0.097000,-6.5278E-6,-1.7696E-7,-2.8118E-6
-0.0050000,-0.0010000,-0.097000,-6.4619E-6,1.0400E-7,2.7279E-6
-0.0040000,-0.0010000,-0.097000,-6.5137E-6,1.3486E-7,2.0021E-6
-0.0030000,-0.0010000,-0.097000,-6.7775E-6,1.5567E-7,1.3190E-6
-0.0020000,-0.0010000,-0.097000,-7.0375E-6,1.8546E-7,6.0238E-7
-0.0010000,-0.0010000,-0.097000,-7.4054E-6,5.6751E-8,3.4722E-7
-2.7105E-20,-0.0010000,-0.097000,-7.6320E-6,-3.2881E-8,1.2616E-8
0.0010000,-0.0010000,-0.097000,-7.4964E-6,-1.0685E-7,-1.2327E-7
0.0020000,-0.0010000,-0.097000,-7.0983E-6,-1.8612E-7,-5.3805E-7
0.0030000,-0.0010000,-0.097000,-6.7570E-6,-2.0348E-7,-1.2400E-6
0.0040000,-0.0010000,-0.097000,-6.5468E-6,-1.3489E-7,-2.0140E-6
0.0050000,-0.0010000,-0.097000,-6.4885E-6,-1.0280E-7,-2.7640E-6
-0.0050000,1.6263E-19,-0.097000,-6.4342E-6,-2.6697E-9,2.7204E-6
-0.0040000,8.1315E-20,-0.097000,-6.5501E-6,-2.4365E-8,1.9971E-6
-0.0030000,1.6263E-19,-0.097000,-6.7299E-6,-1.1625E-9,1.2131E-6
-0.0020000,0.0000,-0.097000,-7.0703E-6,-2.7658E-8,4.5679E-7
-0.0010000,0.0000,-0.097000,-7.4633E-6,-5.3583E-8,8.8890E-9
2.7105E-20,1.3553E-20,-0.097000,-7.7440E-6,-2.2005E-8,1.0849E-8
0.0010000,1.0842E-19,-0.097000,-7.4478E-6,-2.6755E-8,-1.3303E-7
0.0020000,-1.0842E-19,-0.097000,-7.1373E-6,-1.7482E-8,-4.7268E-7
0.0030000,-5.0822E-21,-0.097000,-6.7397E-6,9.7499E-9,-1.2222E-6
0.0040000,-5.4210E-20,-0.097000,-6.5108E-6,-7.9306E-9,-1.9830E-6
0.0050000,-2.7105E-20,-0.097000,-6.4826E-6,-5.3096E-9,-2.7463E-6
-0.0050000,0.0010000,-0.097000,-6.4552E-6,-1.0226E-7,2.7405E-6
-0.0040000,0.0010000,-0.097000,-6.5724E-6,-1.3741E-7,2.0066E-6
-0.0030000,0.0010000,-0.097000,-6.7399E-6,-1.7860E-7,1.2150E-6
-0.0020000,0.0010000,-0.097000,-7.1171E-6,-2.3237E-7,4.9792E-7
-0.0010000,0.0010000,-0.097000,-7.4113E-6,-1.5290E-7,9.4492E-8
1.3553E-20,0.0010000,-0.097000,-7.8290E-6,9.9507E-10,-3.8232E-9
0.0010000,0.0010000,-0.097000,-7.4683E-6,1.7083E-7,-4.3368E-8
0.0020000,0.0010000,-0.097000,-7.0677E-6,1.6402E-7,-5.3863E-7
0.0030000,0.0010000,-0.097000,-6.7647E-6,1.5545E-7,-1.2544E-6
0.0040000,0.0010000,-0.097000,-6.5560E-6,1.3786E-7,-2.0114E-6
0.0050000,0.0010000,-0.097000,-6.4730E-6,9.5173E-8,-2.7363E-6
-0.0050000,0.0020000,-0.097000,-6.5276E-6,-1.9556E-7,2.7985E-6
-0.0040000,0.0020000,-0.097000,-6.6010E-6,-2.4216E-7,2.0955E-6
-0.0030000,0.0020000,-0.097000,-6.7717E-6,-2.3394E-7,1.4211E-6
-0.0020000,0.0020000,-0.097000,-7.0407E-6,-2.3590E-7,7.9226E-7
-0.0010000,0.0020000,-0.097000,-7.3645E-6,-9.8652E-8,3.3653E-7
-2.7105E-20,0.0020000,-0.097000,-7.5012E-6,-3.5066E-9,2.4071E-9
0.0010000,0.0020000,-0.097000,-7.2962E-6,9.3554E-8,-3.1970E-7
0.0020000,0.0020000,-0.097000,-6.9911E-6,2.9014E-7,-7.2798E-7
0.0030000,0.0020000,-0.097000,-6.7820E-6,2.6503E-7,-1.3929E-6
0.0040000,0.0020000,-0.097000,-6.6193E-6,2.2695E-7,-2.0692E-6
0.0050000,0.0020000,-0.097000,-6.4989E-6,1.8300E-7,-2.7590E-6
-0.0050000,0.0030000,-0.097000,-6.5605E-6,-2.1051E-7,2.8282E-6
-0.0040000,0.0030000,-0.097000,-6.6506E-6,-2.6401E-7,2.1657E-6
-0.0030000,0.0030000,-0.097000,-6.8430E-6,-3.3001E-7,1.5233E-6
-0.0020000,0.0030000,-0.097000,-6.9077E-6,-3.4404E-7,8.8866E-7
-0.0010000,0.0030000,-0.097000,-7.2304E-6,-1.9836E-7,4.3224E-7
1.3553E-19,0.0030000,-0.097000,-7.3134E-6,1.6669E-8,-1.7417E-8
0.0010000,0.0030000,-0.097000,-7.1796E-6,1.9852E-7,-4.1808E-7
0.0020000,0.0030000,-0.097000,-7.0534E-6,2.5537E-7,-9.3695E-7
0.0030000,0.0030000,-0.097000,-6.7918E-6,2.7647E-7,-1.5537E-6
0.0040000,0.0030000,-0.097000,-6.6448E-6,2.5235E-7,-2.1610E-6
0.0050000,0.0030000,-0.097000,-6.5462E-6,2.2249E-7,-2.7846E-6
-0.0050000,0.0040000,-0.097000,-6.5674E-6,-2.5704E-7,2.8349E-6
-0.0040000,0.0040000,-0.097000,-6.6889E-6,-2.3530E-7,2.2444E-6
-0.0030000,0.0040000,-0.097000,-6.7996E-6,-2.4149E-7,1.6222E-6
-0.0020000,0.0040000,-0.097000,-6.9419E-6,-2.1733E-7,1.0488E-6
-0.0010000,0.0040000,-0.097000,-7.0871E-6,-1.6744E-7,4.9627E-7
1.3553E-19,0.0040000,-0.097000,-7.0952E-6,-1.0966E-8,-5.8542E-10
0.0010000,0.0040000,-0.097000,-7.0418E-6,1.4480E-7,-4.8071E-7