% Model:              Sample_ExBprobe_E.mph
% Version:            COMSOL 6.3.0.290
% Date:               Mar 17 2026, 17:12
% Dimension:          3
% Nodes:              24321
% Expressions:        147
% Description:        x-coordinate, y-coordinate, z-coordinate, Electric field, x-component, Electric field, y-component, Electric field, z-component, Electric potential
% Length unit:        m
% x (m),y (m),z (m),es.Ex (V/m),es.Ey (V/m),es.Ez (V/m),V (V)
-0.0050000,-0.0050000,-0.10000,-0.0000,-0.0000,-0.0000,0.0000
-0.0040000,-0.0050000,-0.10000,-0.0000,-0.0000,-0.0000,0.0000
-0.0030000,-0.0050000,-0.10000,-0.0000,-0.0000,-0.0000,0.0000
-0.0020000,-0.0050000,-0.10000,-0.0000,-0.0000,-0.0000,0.0000
-0.0010000,-0.0050000,-0.10000,-0.0000,-0.0000,-0.0000,0.0000
-4.7434E-20,-0.0050000,-0.10000,-0.0000,-0.0000,-0.0000,0.0000
0.0010000,-0.0050000,-0.10000,-0.0000,-0.0000,-0.0000,0.0000
0.0020000,-0.0050000,-0.10000,-0.0000,-0.0000,-0.0000,0.0000
0.0030000,-0.0050000,-0.10000,-0.0000,-0.0000,-0.0000,0.0000
0.0040000,-0.0050000,-0.10000,-0.0000,-0.0000,-0.0000,0.0000
0.0050000,-0.0050000,-0.10000,-0.0000,-0.0000,-0.0000,0.0000
-0.0050000,-0.0040000,-0.10000,-0.0000,-0.0000,-0.0000,0.0000
-0.0040000,-0.0040000,-0.10000,-0.0000,-0.0000,-0.0000,0.0000
-0.0030000,-0.0040000,-0.10000,-0.0000,-0.0000,-0.0000,0.0000
-0.0020000,-0.0040000,-0.10000,-0.0000,-0.0000,-0.0000,0.0000
-0.0010000,-0.0040000,-0.10000,-0.0000,-0.0000,-0.0000,0.0000
1.8974E-19,-0.0040000,-0.10000,-0.0000,-0.0000,-0.0000,0.0000
0.0010000,-0.0040000,-0.10000,-0.0000,-0.0000,-0.0000,0.0000
0.0020000,-0.0040000,-0.10000,-0.0000,-0.0000,-0.0000,0.0000
0.0030000,-0.0040000,-0.10000,-0.0000,-0.0000,-0.0000,0.0000
0.0040000,-0.0040000,-0.10000,-0.0000,-0.0000,-0.0000,0.0000
0.0050000,-0.0040000,-0.10000,-0.0000,-0.0000,-0.0000,0.0000
-0.0050000,-0.0030000,-0.10000,-0.0000,-0.0000,-0.0000,0.0000
-0.0040000,-0.0030000,-0.10000,-0.0000,-0.0000,-0.0000,0.0000
-0.0030000,-0.0030000,-0.10000,-0.0000,-0.0000,-0.0000,0.0000
-0.0020000,-0.0030000,-0.10000,-0.0000,-0.0000,-0.0000,0.0000
-0.0010000,-0.0030000,-0.10000,-0.0000,-0.0000,-0.0000,0.0000
-1.5378E-20,-0.0030000,-0.10000,-0.0000,-0.0000,-0.0000,0.0000
0.0010000,-0.0030000,-0.10000,-0.0000,-0.0000,-0.0000,0.0000
0.0020000,-0.0030000,-0.10000,-0.0000,-0.0000,-0.0000,0.0000
0.0030000,-0.0030000,-0.10000,-0.0000,-0.0000,-0.0000,0.0000
0.0040000,-0.0030000,-0.10000,-0.0000,-0.0000,-0.0000,0.0000
0.0050000,-0.0030000,-0.10000,-0.0000,-0.0000,-0.0000,0.0000
-0.0050000,-0.0020000,-0.10000,-0.0000,-0.0000,-0.0000,0.0000
-0.0040000,-0.0020000,-0.10000,-0.0000,-0.0000,-0.0000,0.0000
-0.0030000,-0.0020000,-0.10000,-0.0000,-0.0000,-0.0000,0.0000
-0.0020000,-0.0020000,-0.10000,-0.0000,-0.0000,-0.0000,0.0000
-0.0010000,-0.0020000,-0.10000,-0.0000,-0.0000,-0.0000,0.0000
-6.7763E-21,-0.0020000,-0.10000,-0.0000,-0.0000,-0.0000,0.0000
0.0010000,-0.0020000,-0.10000,-0.0000,-0.0000,-0.0000,0.0000
0.0020000,-0.0020000,-0.10000,-0.0000,-0.0000,-0.0000,0.0000
0.0030000,-0.0020000,-0.10000,-0.0000,-0.0000,-0.0000,0.0000
0.0040000,-0.0020000,-0.10000,-0.0000,-0.0000,-0.0000,0.0000
0.0050000,-0.0020000,-0.10000,-0.0000,-0.0000,-0.0000,0.0000
-0.0050000,-0.0010000,-0.10000,-0.0000,-0.0000,-0.0000,0.0000
-0.0040000,-0.0010000,-0.10000,-0.0000,-0.0000,-0.0000,0.0000
-0.0030000,-0.0010000,-0.10000,-0.0000,-0.0000,-0.0000,0.0000
-0.0020000,-0.0010000,-0.10000,-0.0000,-0.0000,-0.0000,0.0000
-0.0010000,-0.0010000,-0.10000,-0.0000,-0.0000,-0.0000,0.0000
-1.4997E-19,-0.0010000,-0.10000,-0.0000,-0.0000,-0.0000,0.0000
0.0010000,-0.0010000,-0.10000,-0.0000,-0.0000,-0.0000,0.0000
0.0020000,-0.0010000,-0.10000,-0.0000,-0.0000,-0.0000,0.0000
0.0030000,-0.0010000,-0.10000,-0.0000,-0.0000,-0.0000,0.0000
0.0040000,-0.0010000,-0.10000,-0.0000,-0.0000,-0.0000,0.0000
0.0050000,-0.0010000,-0.10000,-0.0000,-0.0000,-0.0000,0.0000
-0.0050000,-1.6263E-19,-0.10000,-0.0000,-0.0000,-0.0000,0.0000
-0.0040000,-3.7587E-20,-0.10000,-0.0000,-0.0000,-0.0000,0.0000
-0.0030000,3.0708E-21,-0.10000,-0.0000,-0.0000,-0.0000,0.0000
-0.0020000,-2.0329E-20,-0.10000,-0.0000,-0.0000,-0.0000,0.0000
-0.0010000,-6.3426E-20,-0.10000,-0.0000,-0.0000,-0.0000,0.0000
2.7444E-19,4.7434E-19,-0.10000,5.4073E-10,1.2148E-9,-9.0183E-9,4.2800E-12
0.0010000,-1.6664E-19,-0.10000,8.5992E-9,-5.0792E-10,-7.5572E-9,-2.7942E-25
0.0020000,-5.4210E-20,-0.10000,-0.0000,-0.0000,-0.0000,0.0000
0.0030000,7.5560E-20,-0.10000,-0.0000,-0.0000,-0.0000,0.0000
0.0040000,-9.8050E-21,-0.10000,-0.0000,-0.0000,-0.0000,0.0000
0.0050000,-8.1315E-20,-0.10000,-0.0000,-0.0000,-0.0000,0.0000
-0.0050000,0.0010000,-0.10000,-0.0000,-0.0000,-0.0000,0.0000
-0.0040000,0.0010000,-0.10000,-0.0000,-0.0000,-0.0000,0.0000
-0.0030000,0.0010000,-0.10000,-0.0000,-0.0000,-0.0000,0.0000
-0.0020000,0.0010000,-0.10000,-0.0000,-0.0000,-0.0000,0.0000
-0.0010000,0.0010000,-0.10000,-0.0000,-0.0000,-0.0000,0.0000
1.8010E-19,0.0010000,-0.10000,-0.0000,-0.0000,-0.0000,0.0000
0.0010000,0.0010000,-0.10000,-0.0000,-0.0000,-0.0000,0.0000
0.0020000,0.0010000,-0.10000,-0.0000,-0.0000,-0.0000,0.0000
0.0030000,0.0010000,-0.10000,-0.0000,-0.0000,-0.0000,0.0000
0.0040000,0.0010000,-0.10000,-0.0000,-0.0000,-0.0000,0.0000
0.0050000,0.0010000,-0.10000,-0.0000,-0.0000,-0.0000,0.0000
-0.0050000,0.0020000,-0.10000,-0.0000,-0.0000,-0.0000,0.0000
-0.0040000,0.0020000,-0.10000,-0.0000,-0.0000,-0.0000,0.0000
-0.0030000,0.0020000,-0.10000,-0.0000,-0.0000,-0.0000,0.0000
-0.0020000,0.0020000,-0.10000,-0.0000,-0.0000,-0.0000,0.0000
-0.0010000,0.0020000,-0.10000,-0.0000,-0.0000,-0.0000,0.0000
-2.7105E-20,0.0020000,-0.10000,-0.0000,-0.0000,-0.0000,0.0000
0.0010000,0.0020000,-0.10000,-0.0000,-0.0000,-0.0000,0.0000
0.0020000,0.0020000,-0.10000,-0.0000,-0.0000,-0.0000,0.0000
0.0030000,0.0020000,-0.10000,-0.0000,-0.0000,-0.0000,0.0000
0.0040000,0.0020000,-0.10000,-0.0000,-0.0000,-0.0000,0.0000
0.0050000,0.0020000,-0.10000,-0.0000,-0.0000,-0.0000,0.0000
-0.0050000,0.0030000,-0.10000,-0.0000,-0.0000,-0.0000,0.0000
-0.0040000,0.0030000,-0.10000,-0.0000,-0.0000,-0.0000,0.0000
-0.0030000,0.0030000,-0.10000,-0.0000,-0.0000,-0.0000,0.0000
-0.0020000,0.0030000,-0.10000,-0.0000,-0.0000,-0.0000,0.0000
-0.0010000,0.0030000,-0.10000,-0.0000,-0.0000,-0.0000,0.0000
-2.7105E-20,0.0030000,-0.10000,-0.0000,-0.0000,-0.0000,0.0000
0.0010000,0.0030000,-0.10000,-0.0000,-0.0000,-0.0000,0.0000
0.0020000,0.0030000,-0.10000,-0.0000,-0.0000,-0.0000,0.0000
0.0030000,0.0030000,-0.10000,-0.0000,-0.0000,-0.0000,0.0000
0.0040000,0.0030000,-0.10000,-0.0000,-0.0000,-0.0000,0.0000
0.0050000,0.0030000,-0.10000,-0.0000,-0.0000,-0.0000,0.0000
-0.0050000,0.0040000,-0.10000,-0.0000,-0.0000,-0.0000,0.0000
-0.0040000,0.0040000,-0.10000,-0.0000,-0.0000,-0.0000,0.0000
-0.0030000,0.0040000,-0.10000,-0.0000,-0.0000,-0.0000,0.0000
-0.0020000,0.0040000,-0.10000,-0.0000,-0.0000,-0.0000,0.0000
-0.0010000,0.0040000,-0.10000,-0.0000,-0.0000,-0.0000,0.0000
7.5856E-20,0.0040000,-0.10000,-0.0000,-0.0000,-0.0000,0.0000
0.0010000,0.0040000,-0.10000,-0.0000,-0.0000,-0.0000,0.0000
0.0020000,0.0040000,-0.10000,-0.0000,-0.0000,-0.0000,0.0000
0.0030000,0.0040000,-0.10000,-0.0000,-0.0000,-0.0000,0.0000
0.0040000,0.0040000,-0.10000,-0.0000,-0.0000,-0.0000,0.0000
0.0050000,0.0040000,-0.10000,-0.0000,-0.0000,-0.0000,0.0000
-0.0050000,0.0050000,-0.10000,-0.0000,-0.0000,-0.0000,0.0000
-0.0040000,0.0050000,-0.10000,-0.0000,-0.0000,-0.0000,0.0000
-0.0030000,0.0050000,-0.10000,-0.0000,-0.0000,-0.0000,0.0000
-0.0020000,0.0050000,-0.10000,-0.0000,-0.0000,-0.0000,0.0000
-0.0010000,0.0050000,-0.10000,-0.0000,-0.0000,-0.0000,0.0000
2.7105E-19,0.0050000,-0.10000,-0.0000,-0.0000,-0.0000,0.0000
0.0010000,0.0050000,-0.10000,-0.0000,-0.0000,-0.0000,0.0000
0.0020000,0.0050000,-0.10000,-0.0000,-0.0000,-0.0000,0.0000
0.0030000,0.0050000,-0.10000,-0.0000,-0.0000,-0.0000,0.0000
0.0040000,0.0050000,-0.10000,-0.0000,-0.0000,-0.0000,0.0000
0.0050000,0.0050000,-0.10000,-0.0000,-0.0000,-0.0000,0.0000
-0.0050000,-0.0050000,-0.099000,-1.6075E-22,-1.0913E-22,-1.3709E-8,3.8049E-25
-0.0040000,-0.0050000,-0.099000,-1.1390E-22,-1.6443E-22,-1.6929E-8,4.6988E-25
-0.0030000,-0.0050000,-0.099000,-9.4935E-23,-1.6793E-22,-2.0882E-8,5.7959E-25
-0.0020000,-0.0050000,-0.099000,-6.5895E-23,-1.7428E-22,-2.3896E-8,6.6324E-25
-0.0010000,-0.0050000,-0.099000,-3.1199E-23,-1.7936E-22,-2.5766E-8,7.1516E-25
-4.8052E-20,-0.0050000,-0.099000,-3.1199E-23,-1.7936E-22,-2.6890E-8,7.4636E-25
0.0010000,-0.0050000,-0.099000,7.4417E-23,-1.7035E-22,-2.6667E-8,7.5900E-25
0.0020000,-0.0050000,-0.099000,7.1199E-23,-1.6272E-22,-2.4140E-8,6.7639E-25
0.0030000,-0.0050000,-0.099000,7.1208E-23,-1.7313E-22,-2.1613E-8,6.0699E-25
0.0040000,-0.0050000,-0.099000,1.2393E-22,-1.3769E-22,-1.7473E-8,4.7863E-25
0.0050000,-0.0050000,-0.099000,1.2538E-22,-1.4035E-22,-1.3017E-8,3.5639E-25
-0.0050000,-0.0040000,-0.099000,-1.6075E-22,-1.0913E-22,-1.7641E-8,4.8963E-25
-0.0040000,-0.0040000,-0.099000,-1.4376E-22,-1.3025E-22,-2.2261E-8,6.1787E-25
-0.0030000,-0.0040000,-0.099000,-1.2741E-22,-1.2742E-22,-2.6762E-8,7.4278E-25
-0.0020000,-0.0040000,-0.099000,-1.1275E-22,-1.3292E-22,-3.0870E-8,8.5681E-25
-0.0010000,-0.0040000,-0.099000,-5.0329E-23,-1.6839E-22,-3.2035E-8,8.8915E-25
-8.6221E-20,-0.0040000,-0.099000,1.6320E-23,-1.7330E-22,-3.3095E-8,9.1857E-25
0.0010000,-0.0040000,-0.099000,4.3202E-23,-1.6787E-22,-3.2031E-8,8.8903E-25
0.0020000,-0.0040000,-0.099000,7.9793E-23,-1.5667E-22,-3.0170E-8,8.3740E-25
0.0030000,-0.0040000,-0.099000,1.3280E-22,-1.2727E-22,-2.7204E-8,7.5505E-25
0.0040000,-0.0040000,-0.099000,1.2322E-22,-1.3561E-22,-2.2565E-8,6.1774E-25
0.0050000,-0.0040000,-0.099000,1.5425E-22,-1.2399E-22,-1.7755E-8,4.9281E-25
-0.0050000,-0.0030000,-0.099000,-1.6756E-22,-8.9973E-23,-2.1308E-8,5.9141E-25
-0.0040000,-0.0030000,-0.099000,-1.6756E-22,-8.9973E-23,-2.7345E-8,7.5897E-25
-0.0030000,-0.0030000,-0.099000,-1.2646E-22,-1.1665E-22,-3.1322E-8,8.6935E-25
-0.0020000,-0.0030000,-0.099000,-1.0817E-22,-1.2058E-22,-3.5512E-8,9.8565E-25
-0.0010000,-0.0030000,-0.099000,-6.8107E-23,-1.5839E-22,-3.8845E-8,1.0782E-24
0.0000,-0.0030000,-0.099000,-8.0285E-24,-1.9258E-22,-4.0163E-8,1.1148E-24
0.0010000,-0.0030000,-0.099000,4.2004E-23,-1.7228E-22,-3.8158E-8,1.0591E-24
0.0020000,-0.0030000,-0.099000,9.8100E-23,-1.3994E-22,-3.5373E-8,9.8180E-25
0.0030000,-0.0030000,-0.099000,1.3280E-22,-1.2727E-22,-3.1789E-8,8.8232E-25
0.0040000,-0.0030000,-0.099000,1.3489E-22,-1.0918E-22,-2.6930E-8,7.4747E-25
0.0050000,-0.0030000,-0.099000,1.6974E-22,-8.6344E-23,-2.1471E-8,5.8660E-25
-0.0050000,-0.0020000,-0.099000,-1.7266E-22,-8.7651E-23,-2.3582E-8,6.5454E-25
-0.0040000,-0.0020000,-0.099000,-1.7266E-22,-8.7651E-23,-2.9803E-8,8.2720E-25
-0.0030000,-0.0020000,-0.099000,-1.4012E-22,-1.0103E-22,-3.5413E-8,9.8291E-25
-0.0020000,-0.0020000,-0.099000,-1.6085E-22,-1.0450E-22,-4.2151E-8,1.1699E-24
-0.0010000,-0.0020000,-0.099000,-6.7405E-23,-1.6398E-22,-4.4738E-8,1.2417E-24
1.6941E-21,-0.0020000,-0.099000,-1.7334E-21,1.0186E-21,-4.7122E-8,9.0589E-25
0.0010000,-0.0020000,-0.099000,1.5225E-21,-4.8316E-22,-4.6768E-8,1.6096E-24
0.0020000,-0.0020000,-0.099000,1.1207E-22,-1.3154E-22,-4.1291E-8,1.1461E-24
0.0030000,-0.0020000,-0.099000,1.4414E-22,-1.1481E-22,-3.5872E-8,9.9564E-25
0.0040000,-0.0020000,-0.099000,1.5045E-22,-9.4597E-23,-3.0563E-8,8.4829E-25
0.0050000,-0.0020000,-0.099000,1.7275E-22,-8.5456E-23,-2.4549E-8,6.8137E-25
-0.0050000,-0.0010000,-0.099000,-1.8666E-22,-3.0310E-23,-2.6006E-8,7.2182E-25
-0.0040000,-0.0010000,-0.099000,-1.6388E-22,-3.5064E-23,-3.2183E-8,8.9326E-25
-0.0030000,-0.0010000,-0.099000,-1.6710E-22,-3.3705E-23,-3.8161E-8,1.0592E-24
-0.0020000,-0.0010000,-0.099000,-8.0732E-22,-4.0579E-22,-4.5674E-8,1.3218E-24
-0.0010000,-0.0010000,-0.099000,-8.9291E-9,-1.0171E-8,-2.9305E-8,1.2613E-11
3.7269E-20,-0.0010000,-0.099000,1.0309E-9,-7.2355E-9,-2.7303E-8,1.7549E-11
0.0010000,-0.0010000,-0.099000,1.0710E-8,-8.7392E-9,-2.9551E-8,1.2780E-11
0.0020000,-0.0010000,-0.099000,1.8192E-22,-8.7630E-23,-4.5040E-8,1.2529E-24
0.0030000,-0.0010000,-0.099000,1.5532E-22,-6.3120E-23,-3.8523E-8,1.0692E-24
0.0040000,-0.0010000,-0.099000,1.6698E-22,-2.9252E-23,-3.2366E-8,8.9833E-25
0.0050000,-0.0010000,-0.099000,1.8335E-22,-3.4211E-23,-2.5975E-8,7.2095E-25
-0.0050000,-1.6263E-19,-0.099000,-1.6988E-22,7.6120E-24,-2.7157E-8,7.5375E-25
-0.0040000,-6.8487E-21,-0.099000,-1.6691E-22,-1.2221E-23,-3.3031E-8,9.1678E-25
-0.0030000,-2.7105E-20,-0.099000,-2.1008E-22,-1.8132E-23,-4.0353E-8,1.1200E-24
-0.0020000,5.5505E-20,-0.099000,1.5602E-21,-1.2560E-21,-4.5443E-8,1.3638E-24
-0.0010000,-8.4247E-21,-0.099000,-7.9117E-9,-1.6146E-10,-2.8064E-8,1.7539E-11
2.7105E-20,2.7105E-20,-0.099000,1.1749E-10,5.1063E-11,-2.6467E-8,2.1448E-11
0.0010000,-1.3553E-20,-0.099000,7.6783E-9,-2.6323E-10,-2.7573E-8,1.7547E-11
0.0020000,-1.5407E-32,-0.099000,3.3555E-21,-3.1983E-21,-4.7993E-8,2.0547E-24
0.0030000,5.4210E-20,-0.099000,2.3025E-22,1.2866E-23,-3.9698E-8,1.1018E-24
0.0040000,-1.2197E-19,-0.099000,1.6962E-22,2.6173E-23,-3.3101E-8,9.1875E-25
0.0050000,-1.8129E-19,-0.099000,1.7829E-22,2.1203E-23,-2.6634E-8,7.3923E-25
-0.0050000,0.0010000,-0.099000,-1.7843E-22,6.0701E-23,-2.6602E-8,7.3834E-25
-0.0040000,0.0010000,-0.099000,-1.6843E-22,3.4636E-23,-3.2807E-8,9.1057E-25
-0.0030000,0.0010000,-0.099000,-1.8718E-22,4.1216E-23,-3.8175E-8,1.0596E-24
-0.0020000,0.0010000,-0.099000,-1.8718E-22,4.1216E-23,-4.4918E-8,1.2467E-24
-0.0010000,0.0010000,-0.099000,-1.0284E-8,7.4385E-9,-2.9298E-8,1.2653E-11
-1.3553E-19,0.0010000,-0.099000,-1.3607E-10,9.1108E-9,-2.8329E-8,1.7156E-11
0.0010000,0.0010000,-0.099000,1.0498E-8,8.7900E-9,-2.9332E-8,1.2700E-11
0.0020000,0.0010000,-0.099000,1.7719E-22,1.1895E-22,-4.5016E-8,1.2495E-24
0.0030000,0.0010000,-0.099000,1.6808E-22,4.9566E-23,-3.8147E-8,1.0588E-24
0.0040000,0.0010000,-0.099000,1.6808E-22,4.9566E-23,-3.2091E-8,8.9072E-25
0.0050000,0.0010000,-0.099000,1.8202E-22,2.6659E-23,-2.5761E-8,7.1502E-25
-0.0050000,0.0020000,-0.099000,-1.7843E-22,6.0701E-23,-2.4415E-8,6.7764E-25
-0.0040000,0.0020000,-0.099000,-1.4710E-22,7.3868E-23,-3.0313E-8,8.4135E-25
-0.0030000,0.0020000,-0.099000,-1.2767E-22,1.0638E-22,-3.5192E-8,9.7678E-25
-0.0020000,0.0020000,-0.099000,-1.6992E-22,1.4407E-22,-4.0960E-8,1.1369E-24
-0.0010000,0.0020000,-0.099000,-1.8382E-21,-1.5774E-21,-4.4579E-8,3.0985E-25
4.1909E-19,0.0020000,-0.099000,2.3260E-21,-2.0223E-22,-4.7410E-8,-1.7889E-24
0.0010000,0.0020000,-0.099000,8.9082E-23,1.8011E-22,-4.4528E-8,1.2359E-24
0.0020000,0.0020000,-0.099000,8.9082E-23,1.8011E-22,-4.1318E-8,1.1468E-24
0.0030000,0.0020000,-0.099000,1.4204E-22,9.2453E-23,-3.5560E-8,9.8698E-25
0.0040000,0.0020000,-0.099000,1.6009E-22,7.7914E-23,-2.9535E-8,8.1976E-25
0.0050000,0.0020000,-0.099000,1.6009E-22,7.7914E-23,-2.3767E-8,6.5967E-25
-0.0050000,0.0030000,-0.099000,-1.5562E-22,1.1544E-22,-2.1222E-8,5.8902E-25
-0.0040000,0.0030000,-0.099000,-1.2874E-22,1.3819E-22,-2.6884E-8,7.4618E-25
-0.0030000,0.0030000,-0.099000,-1.3365E-22,1.0901E-22,-3.1359E-8,8.7039E-25
-0.0020000,0.0030000,-0.099000,-1.1084E-22,1.1771E-22,-3.5367E-8,9.8164E-25
-0.0010000,0.0030000,-0.099000,-5.4148E-23,1.6341E-22,-3.7681E-8,1.0458E-24
6.9397E-20,0.0030000,-0.099000,-2.6822E-23,1.6424E-22,-3.9062E-8,1.0842E-24
0.0010000,0.0030000,-0.099000,8.0657E-23,1.5582E-22,-3.8009E-8,1.0549E-24
0.0020000,0.0030000,-0.099000,9.2409E-23,1.3347E-22,-3.4945E-8,9.6991E-25
0.0030000,0.0030000,-0.099000,1.1265E-22,1.2873E-22,-3.1009E-8,8.6068E-25
0.0040000,0.0030000,-0.099000,1.6059E-22,1.0022E-22,-2.6023E-8,7.2227E-25
0.0050000,0.0030000,-0.099000,1.5826E-22,9.9606E-23,-2.0876E-8,5.7942E-25
-0.0050000,0.0040000,-0.099000,-1.5562E-22,1.1544E-22,-1.7063E-8,4.7359E-25
-0.0040000,0.0040000,-0.099000,-1.2493E-22,1.3557E-22,-2.1931E-8,6.0871E-25
-0.0030000,0.0040000,-0.099000,-1.1016E-22,1.4286E-22,-2.6385E-8,7.3234E-25
-0.0020000,0.0040000,-0.099000,-6.8266E-23,1.8080E-22,-2.9910E-8,8.3016E-25
-0.0010000,0.0040000,-0.099000,-5.4142E-23,1.6543E-22,-3.1766E-8,8.8170E-25
1.8575E-20,0.0040000,-0.099000,-2.9048E-23,1.7012E-22,-3.3115E-8,9.1913E-25
0.0010000,0.0040000,-0.099000,7.8179E-23,1.5066E-22,-3.2409E-8,8.9953E-25
0.0020000,0.0040000,-0.099000,7.8179E-23,1.5066E-22,-2.9592E-8,8.2135E-25
0.0030000,0.0040000,-0.099000,9.9120E-23,1.5631E-22,-2.6069E-8,7.2355E-25
0.0040000,0.0040000,-0.099000,1.6059E-22,1.0022E-22,-2.2412E-8,6.2205E-25
0.0050000,0.0040000,-0.099000,1.6123E-22,1.1691E-22,-1.7262E-8,4.7911E-25
-0.0050000,0.0050000,-0.099000,-1.1877E-22,1.5544E-22,-1.2880E-8,3.5750E-25
-0.0040000,0.0050000,-0.099000,-1.1877E-22,1.5544E-22,-1.7160E-8,4.7627E-25
-0.0030000,0.0050000,-0.099000,-6.6416E-23,1.7500E-22,-2.0991E-8,5.8262E-25
-0.0020000,0.0050000,-0.099000,-6.8266E-23,1.8080E-22,-2.3396E-8,6.4936E-25
-0.0010000,0.0050000,-0.099000,-5.4142E-23,1.6543E-22,-2.5806E-8,7.1627E-25
-5.4210E-20,0.0050000,-0.099000,1.5058E-23,1.8418E-22,-2.5897E-8,7.1879E-25
0.0010000,0.0050000,-0.099000,1.5058E-23,1.8418E-22,-2.5355E-8,7.0373E-25
0.0020000,0.0050000,-0.099000,9.9120E-23,1.5631E-22,-2.4008E-8,6.6636E-25
0.0030000,0.0050000,-0.099000,7.9955E-23,1.7069E-22,-2.0618E-8,5.7227E-25
0.0040000,0.0050000,-0.099000,1.2115E-22,1.5107E-22,-1.6623E-8,4.6138E-25
0.0050000,0.0050000,-0.099000,1.6123E-22,1.1691E-22,-1.3050E-8,3.6220E-25
-0.0050000,-0.0050000,-0.098000,-5.4401E-9,-4.9971E-9,-1.3643E-8,1.3107E-11
-0.0040000,-0.0050000,-0.098000,-4.2190E-9,-6.0616E-9,-1.8620E-8,1.7799E-11
-0.0030000,-0.0050000,-0.098000,-3.7165E-9,-6.7778E-9,-2.2769E-8,2.1766E-11
-0.0020000,-0.0050000,-0.098000,-2.6836E-9,-5.8701E-9,-2.5942E-8,2.4966E-11
-0.0010000,-0.0050000,-0.098000,-9.1167E-10,-5.6959E-9,-2.8071E-8,2.6858E-11
-1.0842E-19,-0.0050000,-0.098000,-4.8942E-10,-6.9666E-9,-2.8162E-8,2.7558E-11
0.0010000,-0.0050000,-0.098000,1.4934E-9,-6.4766E-9,-2.7639E-8,2.6914E-11
0.0020000,-0.0050000,-0.098000,2.6093E-9,-6.0778E-9,-2.5581E-8,2.4909E-11
0.0030000,-0.0050000,-0.098000,3.3850E-9,-6.0945E-9,-2.2207E-8,2.1990E-11
0.0040000,-0.0050000,-0.098000,4.4562E-9,-5.0923E-9,-1.8631E-8,1.8052E-11
0.0050000,-0.0050000,-0.098000,5.0143E-9,-4.7821E-9,-1.3721E-8,1.3436E-11
-0.0050000,-0.0040000,-0.098000,-5.5342E-9,-4.4125E-9,-1.8303E-8,1.7688E-11
-0.0040000,-0.0040000,-0.098000,-5.2708E-9,-4.7566E-9,-2.3833E-8,2.2995E-11
-0.0030000,-0.0040000,-0.098000,-4.2139E-9,-5.0749E-9,-2.8311E-8,2.7557E-11
-0.0020000,-0.0040000,-0.098000,-2.8349E-9,-5.8810E-9,-3.1478E-8,3.0924E-11
-0.0010000,-0.0040000,-0.098000,-1.1247E-9,-6.3840E-9,-3.3737E-8,3.3089E-11
5.4210E-20,-0.0040000,-0.098000,3.3205E-10,-6.2679E-9,-3.4523E-8,3.3826E-11
0.0010000,-0.0040000,-0.098000,1.5565E-9,-6.0481E-9,-3.3951E-8,3.2991E-11
0.0020000,-0.0040000,-0.098000,3.3144E-9,-5.7916E-9,-3.1752E-8,3.0892E-11
0.0030000,-0.0040000,-0.098000,3.8608E-9,-5.1261E-9,-2.7943E-8,2.7607E-11
0.0040000,-0.0040000,-0.098000,4.5770E-9,-4.9502E-9,-2.3914E-8,2.3202E-11
0.0050000,-0.0040000,-0.098000,5.5519E-9,-4.4787E-9,-1.8409E-8,1.8123E-11
-0.0050000,-0.0030000,-0.098000,-6.0922E-9,-3.1420E-9,-2.2448E-8,2.1674E-11
-0.0040000,-0.0030000,-0.098000,-5.3634E-9,-3.7911E-9,-2.8331E-8,2.7560E-11
-0.0030000,-0.0030000,-0.098000,-4.5905E-9,-4.5907E-9,-3.2903E-8,3.2127E-11
-0.0020000,-0.0030000,-0.098000,-3.6938E-9,-4.9739E-9,-3.6997E-8,3.6247E-11
-0.0010000,-0.0030000,-0.098000,-1.4528E-9,-5.1811E-9,-3.9191E-8,3.8807E-11
1.3553E-20,-0.0030000,-0.098000,3.4293E-10,-6.1253E-9,-4.0123E-8,3.9851E-11
0.0010000,-0.0030000,-0.098000,1.6245E-9,-5.5072E-9,-3.9226E-8,3.8972E-11
0.0020000,-0.0030000,-0.098000,3.5344E-9,-5.0419E-9,-3.7093E-8,3.6233E-11
0.0030000,-0.0030000,-0.098000,4.4748E-9,-4.5719E-9,-3.3071E-8,3.2431E-11
0.0040000,-0.0030000,-0.098000,5.0816E-9,-3.3495E-9,-2.8135E-8,2.7557E-11
0.0050000,-0.0030000,-0.098000,6.0303E-9,-3.1613E-9,-2.2469E-8,2.2001E-11
-0.0050000,-0.0020000,-0.098000,-6.1878E-9,-3.1046E-9,-2.5753E-8,2.4709E-11
-0.0040000,-0.0020000,-0.098000,-5.8690E-9,-3.2461E-9,-3.1843E-8,3.0880E-11
-0.0030000,-0.0020000,-0.098000,-4.8214E-9,-3.9910E-9,-3.7415E-8,3.6215E-11
-0.0020000,-0.0020000,-0.098000,-4.0583E-9,-4.0177E-9,-4.0671E-8,4.0882E-11
-0.0010000,-0.0020000,-0.098000,-6.9845E-9,-5.0305E-9,-4.1164E-8,4.4580E-11
2.7105E-20,-0.0020000,-0.098000,2.1456E-10,-6.2618E-9,-4.2367E-8,4.5909E-11
0.0010000,-0.0020000,-0.098000,2.6435E-9,-5.8234E-9,-4.1703E-8,4.4413E-11
0.0020000,-0.0020000,-0.098000,3.9657E-9,-4.0330E-9,-4.0655E-8,4.0989E-11
0.0030000,-0.0020000,-0.098000,5.0926E-9,-3.0725E-9,-3.5892E-8,3.6235E-11
0.0040000,-0.0020000,-0.098000,5.4144E-9,-2.7922E-9,-3.1316E-8,3.0869E-11
0.0050000,-0.0020000,-0.098000,6.2666E-9,-2.4661E-9,-2.5344E-8,2.5013E-11
-0.0050000,-0.0010000,-0.098000,-6.8583E-9,-1.1648E-9,-2.7437E-8,2.6573E-11
-0.0040000,-0.0010000,-0.098000,-6.6241E-9,-1.1430E-9,-3.4195E-8,3.3118E-11
-0.0030000,-0.0010000,-0.098000,-5.4661E-9,-1.6425E-9,-3.9231E-8,3.8936E-11
-0.0020000,-0.0010000,-0.098000,-5.5377E-9,-4.9677E-9,-4.1614E-8,4.4438E-11
-0.0010000,-0.0010000,-0.098000,-4.4519E-9,-4.6587E-9,-4.0908E-8,4.9927E-11
5.2516E-20,-0.0010000,-0.098000,8.0431E-10,-4.3346E-9,-4.1755E-8,5.2034E-11
0.0010000,-0.0010000,-0.098000,4.6178E-9,-4.6611E-9,-4.0874E-8,4.9704E-11
0.0020000,-0.0010000,-0.098000,5.9174E-9,-2.4407E-9,-4.1747E-8,4.4254E-11
0.0030000,-0.0010000,-0.098000,5.4266E-9,-1.8284E-9,-3.8075E-8,3.8659E-11
0.0040000,-0.0010000,-0.098000,6.0159E-9,-1.0539E-9,-3.3633E-8,3.2999E-11
0.0050000,-0.0010000,-0.098000,6.6336E-9,-1.2634E-9,-2.7533E-8,2.6774E-11
-0.0050000,1.2197E-19,-0.098000,-6.5056E-9,-1.1918E-10,-2.8186E-8,2.7474E-11
-0.0040000,1.3553E-19,-0.098000,-5.9849E-9,1.7779E-10,-3.4268E-8,3.3743E-11
-0.0030000,-8.1315E-20,-0.098000,-5.6798E-9,4.0669E-10,-3.9882E-8,3.9559E-11
-0.0020000,-1.3553E-20,-0.098000,-6.8943E-9,-8.2791E-11,-4.2074E-8,4.5976E-11
-0.0010000,-2.7105E-20,-0.098000,-4.7035E-9,1.2881E-9,-4.0460E-8,5.1864E-11
2.6893E-20,1.2176E-19,-0.098000,-6.1447E-10,2.9931E-11,-3.9333E-8,5.4556E-11
0.0010000,0.0000,-0.098000,4.6939E-9,-4.4642E-10,-3.9889E-8,5.2283E-11
0.0020000,2.0329E-20,-0.098000,7.7410E-9,-1.6007E-9,-4.0145E-8,4.6172E-11
0.0030000,5.4210E-20,-0.098000,6.2016E-9,-1.7019E-10,-3.9705E-8,3.9636E-11
0.0040000,3.3881E-20,-0.098000,6.0202E-9,2.0397E-10,-3.4224E-8,3.3708E-11
0.0050000,-3.3881E-20,-0.098000,6.3650E-9,4.0272E-10,-2.7999E-8,2.7386E-11
-0.0050000,0.0010000,-0.098000,-6.4408E-9,1.4681E-9,-2.7000E-8,2.7053E-11
-0.0040000,0.0010000,-0.098000,-5.6595E-9,1.8460E-9,-3.2875E-8,3.2821E-11
-0.0030000,0.0010000,-0.098000,-5.3143E-9,1.7576E-9,-3.8885E-8,3.8318E-11
-0.0020000,0.0010000,-0.098000,-6.3853E-9,3.0464E-9,-4.2345E-8,4.3910E-11
-0.0010000,0.0010000,-0.098000,-4.9224E-9,4.6829E-9,-4.0008E-8,4.9447E-11
0.0000,0.0010000,-0.098000,-7.1999E-10,5.3022E-9,-3.9454E-8,5.2202E-11
0.0010000,0.0010000,-0.098000,4.4612E-9,5.1935E-9,-4.0675E-8,5.0181E-11
0.0020000,0.0010000,-0.098000,4.7469E-9,2.2238E-9,-3.9909E-8,4.4596E-11
0.0030000,0.0010000,-0.098000,6.0027E-9,2.1976E-9,-3.9034E-8,3.8717E-11
0.0040000,0.0010000,-0.098000,5.8281E-9,1.3976E-9,-3.3551E-8,3.2852E-11
0.0050000,0.0010000,-0.098000,6.6909E-9,9.6011E-10,-2.7421E-8,2.6567E-11
-0.0050000,0.0020000,-0.098000,-6.4324E-9,2.2042E-9,-2.5469E-8,2.4735E-11
-0.0040000,0.0020000,-0.098000,-5.4437E-9,2.8749E-9,-3.1083E-8,3.0673E-11
-0.0030000,0.0020000,-0.098000,-4.8026E-9,3.2417E-9,-3.6062E-8,3.5687E-11
-0.0020000,0.0020000,-0.098000,-4.2446E-9,3.8540E-9,-4.0454E-8,4.0277E-11
-0.0010000,0.0020000,-0.098000,-3.0382E-9,6.3234E-9,-4.2765E-8,4.3966E-11
0.0000,0.0020000,-0.098000,-2.8102E-10,5.1900E-9,-4.0117E-8,4.5495E-11
0.0010000,0.0020000,-0.098000,3.2039E-9,6.8661E-9,-4.2757E-8,4.4330E-11
0.0020000,0.0020000,-0.098000,4.2804E-9,4.3854E-9,-4.0686E-8,4.0643E-11
0.0030000,0.0020000,-0.098000,4.7557E-9,3.3731E-9,-3.6698E-8,3.6028E-11
0.0040000,0.0020000,-0.098000,6.2152E-9,2.8950E-9,-3.1629E-8,3.0565E-11
0.0050000,0.0020000,-0.098000,5.6967E-9,2.7186E-9,-2.5597E-8,2.4727E-11
-0.0050000,0.0030000,-0.098000,-5.9859E-9,3.6896E-9,-2.2219E-8,2.1780E-11
-0.0040000,0.0030000,-0.098000,-4.9747E-9,3.9448E-9,-2.7708E-8,2.7279E-11
-0.0030000,0.0030000,-0.098000,-3.9090E-9,4.3547E-9,-3.2497E-8,3.1957E-11
-0.0020000,0.0030000,-0.098000,-3.3327E-9,4.9600E-9,-3.6261E-8,3.5860E-11
-0.0010000,0.0030000,-0.098000,-1.8731E-9,5.4306E-9,-3.8464E-8,3.8202E-11
-5.4210E-20,0.0030000,-0.098000,-5.6870E-10,5.4878E-9,-3.9576E-8,3.9120E-11
0.0010000,0.0030000,-0.098000,2.1079E-9,5.3330E-9,-3.8945E-8,3.8284E-11
0.0020000,0.0030000,-0.098000,2.9060E-9,5.6140E-9,-3.6122E-8,3.5612E-11
0.0030000,0.0030000,-0.098000,3.6917E-9,4.6257E-9,-3.2951E-8,3.1831E-11
0.0040000,0.0030000,-0.098000,5.7427E-9,3.7098E-9,-2.8141E-8,2.7114E-11
0.0050000,0.0030000,-0.098000,5.7396E-9,3.5931E-9,-2.2187E-8,2.1345E-11
-0.0050000,0.0040000,-0.098000,-5.6009E-9,4.3271E-9,-1.8210E-8,1.7682E-11
-0.0040000,0.0040000,-0.098000,-4.5011E-9,4.8845E-9,-2.3333E-8,2.2632E-11
-0.0030000,0.0040000,-0.098000,-3.9688E-9,5.1472E-9,-2.7635E-8,2.7010E-11
-0.0020000,0.0040000,-0.098000,-2.6390E-9,5.6569E-9,-3.1135E-8,3.0625E-11
-0.0010000,0.0040000,-0.098000,-1.0466E-9,6.1292E-9,-3.2759E-8,3.2414E-11
-1.3553E-20,0.0040000,-0.098000,-1.9386E-10,6.1293E-9,-3.3721E-8,3.3309E-11
0.0010000,0.0040000,-0.098000,1.4756E-9,5.8851E-9,-3.3114E-8,3.2675E-11
0.0020000,0.0040000,-0.098000,3.4187E-9,5.0353E-9,-3.1552E-8,3.0140E-11
0.0030000,0.0040000,-0.098000,3.4933E-9,5.1079E-9,-2.7731E-8,2.7037E-11
0.0040000,0.0040000,-0.098000,4.8034E-9,5.1111E-9,-2.3510E-8,2.2891E-11
0.0050000,0.0040000,-0.098000,5.7316E-9,4.2573E-9,-1.8053E-8,1.7633E-11
-0.0050000,0.0050000,-0.098000,-5.1553E-9,5.1553E-9,-1.3313E-8,1.3108E-11
-0.0040000,0.0050000,-0.098000,-4.3444E-9,5.4507E-9,-1.8090E-8,1.7572E-11
-0.0030000,0.0050000,-0.098000,-3.4514E-9,6.2843E-9,-2.2196E-8,2.1695E-11
-0.0020000,0.0050000,-0.098000,-2.4596E-9,6.5141E-9,-2.5256E-8,2.4326E-11
-0.0010000,0.0050000,-0.098000,-1.4355E-9,6.2435E-9,-2.7067E-8,2.6506E-11
-2.7105E-20,0.0050000,-0.098000,3.6592E-10,6.5692E-9,-2.7788E-8,2.6902E-11
0.0010000,0.0050000,-0.098000,7.2039E-10,6.5670E-9,-2.7230E-8,2.6409E-11
0.0020000,0.0050000,-0.098000,3.3195E-9,6.1667E-9,-2.5176E-8,2.4488E-11
0.0030000,0.0050000,-0.098000,2.9552E-9,6.2149E-9,-2.2110E-8,2.1351E-11
0.0040000,0.0050000,-0.098000,4.9814E-9,5.5167E-9,-1.8118E-8,1.7405E-11
0.0050000,0.0050000,-0.098000,4.6853E-9,5.1751E-9,-1.3386E-8,1.2917E-11
-0.0050000,-0.0050000,-0.097000,-1.0603E-8,-1.0533E-8,-1.4689E-8,2.7273E-11
-0.0040000,-0.0050000,-0.097000,-8.8875E-9,-1.1111E-8,-1.9958E-8,3.7088E-11
-0.0030000,-0.0050000,-0.097000,-7.3915E-9,-1.1953E-8,-2.4187E-8,4.5292E-11
-0.0020000,-0.0050000,-0.097000,-5.1732E-9,-1.2918E-8,-2.7641E-8,5.1589E-11
-0.0010000,-0.0050000,-0.097000,-2.1870E-9,-1.3304E-8,-2.9739E-8,5.5249E-11
0.0000,-0.0050000,-0.097000,-3.5142E-10,-1.3555E-8,-3.0707E-8,5.6454E-11
0.0010000,-0.0050000,-0.097000,2.4338E-9,-1.3151E-8,-3.0556E-8,5.5679E-11
0.0020000,-0.0050000,-0.097000,5.2884E-9,-1.2695E-8,-2.8005E-8,5.1497E-11
0.0030000,-0.0050000,-0.097000,7.2579E-9,-1.1960E-8,-2.4564E-8,4.5145E-11
0.0040000,-0.0050000,-0.097000,8.3457E-9,-1.1622E-8,-2.0136E-8,3.7157E-11
0.0050000,-0.0050000,-0.097000,1.0489E-8,-1.0226E-8,-1.4728E-8,2.7429E-11
-0.0050000,-0.0040000,-0.097000,-1.1605E-8,-9.5217E-9,-2.0553E-8,3.6895E-11
-0.0040000,-0.0040000,-0.097000,-9.9763E-9,-9.8685E-9,-2.5466E-8,4.7650E-11
-0.0030000,-0.0040000,-0.097000,-7.8363E-9,-1.0609E-8,-2.9769E-8,5.6598E-11
-0.0020000,-0.0040000,-0.097000,-6.2116E-9,-1.1147E-8,-3.4703E-8,6.3622E-11
-0.0010000,-0.0040000,-0.097000,-2.6286E-9,-1.1957E-8,-3.6834E-8,6.8014E-11
-2.4395E-19,-0.0040000,-0.097000,-6.3905E-11,-1.2403E-8,-3.7649E-8,6.9360E-11
0.0010000,-0.0040000,-0.097000,3.0210E-9,-1.1858E-8,-3.7208E-8,6.8183E-11
0.0020000,-0.0040000,-0.097000,5.8758E-9,-1.1208E-8,-3.4573E-8,6.3670E-11
0.0030000,-0.0040000,-0.097000,8.0399E-9,-1.0827E-8,-3.1048E-8,5.6484E-11
0.0040000,-0.0040000,-0.097000,9.7936E-9,-9.9284E-9,-2.5986E-8,4.7804E-11
0.0050000,-0.0040000,-0.097000,1.1466E-8,-9.0060E-9,-1.9926E-8,3.6915E-11
-0.0050000,-0.0030000,-0.097000,-1.2313E-8,-7.0545E-9,-2.4551E-8,4.5183E-11
-0.0040000,-0.0030000,-0.097000,-1.0608E-8,-7.9368E-9,-2.9865E-8,5.6658E-11
-0.0030000,-0.0030000,-0.097000,-8.8884E-9,-8.9966E-9,-3.5846E-8,6.6438E-11
-0.0020000,-0.0030000,-0.097000,-6.6549E-9,-9.9098E-9,-4.0042E-8,7.4144E-11
-0.0010000,-0.0030000,-0.097000,-2.6862E-9,-9.7789E-9,-4.1866E-8,7.9352E-11
6.7763E-21,-0.0030000,-0.097000,3.4456E-10,-1.0021E-8,-4.3038E-8,8.0794E-11
0.0010000,-0.0030000,-0.097000,3.3048E-9,-9.7208E-9,-4.2019E-8,7.8888E-11
0.0020000,-0.0030000,-0.097000,6.5373E-9,-1.0338E-8,-3.8621E-8,7.4132E-11
0.0030000,-0.0030000,-0.097000,8.4596E-9,-9.0497E-9,-3.6086E-8,6.6668E-11
0.0040000,-0.0030000,-0.097000,1.1060E-8,-7.7999E-9,-3.0999E-8,5.6951E-11
0.0050000,-0.0030000,-0.097000,1.2084E-8,-7.1830E-9,-2.4719E-8,4.5271E-11
-0.0050000,-0.0020000,-0.097000,-1.3452E-8,-5.9582E-9,-2.7709E-8,5.1572E-11
-0.0040000,-0.0020000,-0.097000,-1.0791E-8,-5.2967E-9,-3.2699E-8,6.3320E-11
-0.0030000,-0.0020000,-0.097000,-1.0502E-8,-6.5164E-9,-3.9464E-8,7.3827E-11
-0.0020000,-0.0020000,-0.097000,-6.7151E-9,-7.4357E-9,-4.2837E-8,8.2168E-11
-0.0010000,-0.0020000,-0.097000,-4.4638E-9,-8.0889E-9,-4.5214E-8,8.7803E-11
8.1315E-20,-0.0020000,-0.097000,4.9344E-10,-8.1301E-9,-4.6625E-8,8.9657E-11
0.0010000,-0.0020000,-0.097000,3.4851E-9,-7.2455E-9,-4.5905E-8,8.7663E-11
0.0020000,-0.0020000,-0.097000,6.8951E-9,-6.8726E-9,-4.3227E-8,8.2613E-11
0.0030000,-0.0020000,-0.097000,1.0229E-8,-6.1368E-9,-4.0140E-8,7.4092E-11
0.0040000,-0.0020000,-0.097000,1.1659E-8,-5.5360E-9,-3.4586E-8,6.3331E-11
0.0050000,-0.0020000,-0.097000,1.2320E-8,-5.1813E-9,-2.8418E-8,5.1247E-11
-0.0050000,-0.0010000,-0.097000,-1.3095E-8,-2.3305E-9,-3.0190E-8,5.5386E-11
-0.0040000,-0.0010000,-0.097000,-1.1304E-8,-2.9438E-9,-3.5981E-8,6.7440E-11
-0.0030000,-0.0010000,-0.097000,-1.0071E-8,-3.6309E-9,-4.1652E-8,7.8901E-11
-0.0020000,-0.0010000,-0.097000,-8.4380E-9,-4.0052E-9,-4.4324E-8,8.7789E-11
-0.0010000,-0.0010000,-0.097000,-3.9776E-9,-4.8982E-9,-4.6867E-8,9.3825E-11
-2.7105E-20,-0.0010000,-0.097000,1.4209E-11,-4.1990E-9,-4.7786E-8,9.6146E-11
0.0010000,-0.0010000,-0.097000,4.5683E-9,-4.1932E-9,-4.7795E-8,9.3826E-11
0.0020000,-0.0010000,-0.097000,8.1424E-9,-3.5983E-9,-4.5980E-8,8.7766E-11