% Model:              Sample_ExBprobe_E.mph
% Version:            COMSOL 6.3.0.290
% Date:               Mar 17 2026, 17:11
% Dimension:          3
% Nodes:              24321
% Expressions:        7
% Description:        x-coordinate, y-coordinate, z-coordinate, Electric field, x-component, Electric field, y-component, Electric field, z-component, Electric potential
% Length unit:        m
% x (m),y (m),z (m),es.Ex (V/m),es.Ey (V/m),es.Ez (V/m),V (V)
-0.0050000,-0.0050000,-0.10000,-0.0000,-0.0000,-0.0000,0.0000
-0.0040000,-0.0050000,-0.10000,-0.0000,-0.0000,-0.0000,0.0000
-0.0030000,-0.0050000,-0.10000,-0.0000,-0.0000,-0.0000,0.0000
-0.0020000,-0.0050000,-0.10000,-0.0000,-0.0000,-0.0000,0.0000
-0.0010000,-0.0050000,-0.10000,-0.0000,-0.0000,-0.0000,0.0000
-4.7434E-20,-0.0050000,-0.10000,-0.0000,-0.0000,-0.0000,0.0000
0.0010000,-0.0050000,-0.10000,-0.0000,-0.0000,-0.0000,0.0000
0.0020000,-0.0050000,-0.10000,-0.0000,-0.0000,-0.0000,0.0000
0.0030000,-0.0050000,-0.10000,-0.0000,-0.0000,-0.0000,0.0000
0.0040000,-0.0050000,-0.10000,-0.0000,-0.0000,-0.0000,0.0000
0.0050000,-0.0050000,-0.10000,-0.0000,-0.0000,-0.0000,0.0000
-0.0050000,-0.0040000,-0.10000,-0.0000,-0.0000,-0.0000,0.0000
-0.0040000,-0.0040000,-0.10000,-0.0000,-0.0000,-0.0000,0.0000
-0.0030000,-0.0040000,-0.10000,-0.0000,-0.0000,-0.0000,0.0000
-0.0020000,-0.0040000,-0.10000,-0.0000,-0.0000,-0.0000,0.0000
-0.0010000,-0.0040000,-0.10000,-0.0000,-0.0000,-0.0000,0.0000
1.8974E-19,-0.0040000,-0.10000,-0.0000,-0.0000,-0.0000,0.0000
0.0010000,-0.0040000,-0.10000,-0.0000,-0.0000,-0.0000,0.0000
0.0020000,-0.0040000,-0.10000,-0.0000,-0.0000,-0.0000,0.0000
0.0030000,-0.0040000,-0.10000,-0.0000,-0.0000,-0.0000,0.0000
0.0040000,-0.0040000,-0.10000,-0.0000,-0.0000,-0.0000,0.0000
0.0050000,-0.0040000,-0.10000,-0.0000,-0.0000,-0.0000,0.0000
-0.0050000,-0.0030000,-0.10000,-0.0000,-0.0000,-0.0000,0.0000
-0.0040000,-0.0030000,-0.10000,-0.0000,-0.0000,-0.0000,0.0000
-0.0030000,-0.0030000,-0.10000,-0.0000,-0.0000,-0.0000,0.0000
-0.0020000,-0.0030000,-0.10000,-0.0000,-0.0000,-0.0000,0.0000
-0.0010000,-0.0030000,-0.10000,-0.0000,-0.0000,-0.0000,0.0000
-1.5378E-20,-0.0030000,-0.10000,-0.0000,-0.0000,-0.0000,0.0000
0.0010000,-0.0030000,-0.10000,-0.0000,-0.0000,-0.0000,0.0000
0.0020000,-0.0030000,-0.10000,-0.0000,-0.0000,-0.0000,0.0000
0.0030000,-0.0030000,-0.10000,-0.0000,-0.0000,-0.0000,0.0000
0.0040000,-0.0030000,-0.10000,-0.0000,-0.0000,-0.0000,0.0000
0.0050000,-0.0030000,-0.10000,-0.0000,-0.0000,-0.0000,0.0000
-0.0050000,-0.0020000,-0.10000,-0.0000,-0.0000,-0.0000,0.0000
-0.0040000,-0.0020000,-0.10000,-0.0000,-0.0000,-0.0000,0.0000
-0.0030000,-0.0020000,-0.10000,-0.0000,-0.0000,-0.0000,0.0000
-0.0020000,-0.0020000,-0.10000,-0.0000,-0.0000,-0.0000,0.0000
-0.0010000,-0.0020000,-0.10000,-0.0000,-0.0000,-0.0000,0.0000
-6.7763E-21,-0.0020000,-0.10000,-0.0000,-0.0000,-0.0000,0.0000
0.0010000,-0.0020000,-0.10000,-0.0000,-0.0000,-0.0000,0.0000
0.0020000,-0.0020000,-0.10000,-0.0000,-0.0000,-0.0000,0.0000
0.0030000,-0.0020000,-0.10000,-0.0000,-0.0000,-0.0000,0.0000
0.0040000,-0.0020000,-0.10000,-0.0000,-0.0000,-0.0000,0.0000
0.0050000,-0.0020000,-0.10000,-0.0000,-0.0000,-0.0000,0.0000
-0.0050000,-0.0010000,-0.10000,-0.0000,-0.0000,-0.0000,0.0000
-0.0040000,-0.0010000,-0.10000,-0.0000,-0.0000,-0.0000,0.0000
-0.0030000,-0.0010000,-0.10000,-0.0000,-0.0000,-0.0000,0.0000
-0.0020000,-0.0010000,-0.10000,-0.0000,-0.0000,-0.0000,0.0000
-0.0010000,-0.0010000,-0.10000,-0.0000,-0.0000,-0.0000,0.0000
-1.4997E-19,-0.0010000,-0.10000,-0.0000,-0.0000,-0.0000,0.0000
0.0010000,-0.0010000,-0.10000,-0.0000,-0.0000,-0.0000,0.0000
0.0020000,-0.0010000,-0.10000,-0.0000,-0.0000,-0.0000,0.0000
0.0030000,-0.0010000,-0.10000,-0.0000,-0.0000,-0.0000,0.0000
0.0040000,-0.0010000,-0.10000,-0.0000,-0.0000,-0.0000,0.0000
0.0050000,-0.0010000,-0.10000,-0.0000,-0.0000,-0.0000,0.0000
-0.0050000,-1.6263E-19,-0.10000,-0.0000,-0.0000,-0.0000,0.0000
-0.0040000,-3.7587E-20,-0.10000,-0.0000,-0.0000,-0.0000,0.0000
-0.0030000,3.0708E-21,-0.10000,-0.0000,-0.0000,-0.0000,0.0000
-0.0020000,-2.0329E-20,-0.10000,-0.0000,-0.0000,-0.0000,0.0000
-0.0010000,-6.3426E-20,-0.10000,-0.0000,-0.0000,-0.0000,0.0000
2.7444E-19,4.7434E-19,-0.10000,2.4579E-10,5.5217E-10,-4.0992E-9,1.9454E-12
0.0010000,-1.6664E-19,-0.10000,3.9087E-9,-2.3087E-10,-3.4351E-9,-1.2701E-25
0.0020000,-5.4210E-20,-0.10000,-0.0000,-0.0000,-0.0000,0.0000
0.0030000,7.5560E-20,-0.10000,-0.0000,-0.0000,-0.0000,0.0000
0.0040000,-9.8050E-21,-0.10000,-0.0000,-0.0000,-0.0000,0.0000
0.0050000,-8.1315E-20,-0.10000,-0.0000,-0.0000,-0.0000,0.0000
-0.0050000,0.0010000,-0.10000,-0.0000,-0.0000,-0.0000,0.0000
-0.0040000,0.0010000,-0.10000,-0.0000,-0.0000,-0.0000,0.0000
-0.0030000,0.0010000,-0.10000,-0.0000,-0.0000,-0.0000,0.0000
-0.0020000,0.0010000,-0.10000,-0.0000,-0.0000,-0.0000,0.0000
-0.0010000,0.0010000,-0.10000,-0.0000,-0.0000,-0.0000,0.0000
1.8010E-19,0.0010000,-0.10000,-0.0000,-0.0000,-0.0000,0.0000
0.0010000,0.0010000,-0.10000,-0.0000,-0.0000,-0.0000,0.0000
0.0020000,0.0010000,-0.10000,-0.0000,-0.0000,-0.0000,0.0000
0.0030000,0.0010000,-0.10000,-0.0000,-0.0000,-0.0000,0.0000
0.0040000,0.0010000,-0.10000,-0.0000,-0.0000,-0.0000,0.0000
0.0050000,0.0010000,-0.10000,-0.0000,-0.0000,-0.0000,0.0000
-0.0050000,0.0020000,-0.10000,-0.0000,-0.0000,-0.0000,0.0000
-0.0040000,0.0020000,-0.10000,-0.0000,-0.0000,-0.0000,0.0000
-0.0030000,0.0020000,-0.10000,-0.0000,-0.0000,-0.0000,0.0000
-0.0020000,0.0020000,-0.10000,-0.0000,-0.0000,-0.0000,0.0000
-0.0010000,0.0020000,-0.10000,-0.0000,-0.0000,-0.0000,0.0000
-2.7105E-20,0.0020000,-0.10000,-0.0000,-0.0000,-0.0000,0.0000
0.0010000,0.0020000,-0.10000,-0.0000,-0.0000,-0.0000,0.0000
0.0020000,0.0020000,-0.10000,-0.0000,-0.0000,-0.0000,0.0000
0.0030000,0.0020000,-0.10000,-0.0000,-0.0000,-0.0000,0.0000
0.0040000,0.0020000,-0.10000,-0.0000,-0.0000,-0.0000,0.0000
0.0050000,0.0020000,-0.10000,-0.0000,-0.0000,-0.0000,0.0000
-0.0050000,0.0030000,-0.10000,-0.0000,-0.0000,-0.0000,0.0000
-0.0040000,0.0030000,-0.10000,-0.0000,-0.0000,-0.0000,0.0000
-0.0030000,0.0030000,-0.10000,-0.0000,-0.0000,-0.0000,0.0000
-0.0020000,0.0030000,-0.10000,-0.0000,-0.0000,-0.0000,0.0000
-0.0010000,0.0030000,-0.10000,-0.0000,-0.0000,-0.0000,0.0000
-2.7105E-20,0.0030000,-0.10000,-0.0000,-0.0000,-0.0000,0.0000
0.0010000,0.0030000,-0.10000,-0.0000,-0.0000,-0.0000,0.0000
0.0020000,0.0030000,-0.10000,-0.0000,-0.0000,-0.0000,0.0000
0.0030000,0.0030000,-0.10000,-0.0000,-0.0000,-0.0000,0.0000
0.0040000,0.0030000,-0.10000,-0.0000,-0.0000,-0.0000,0.0000
0.0050000,0.0030000,-0.10000,-0.0000,-0.0000,-0.0000,0.0000
-0.0050000,0.0040000,-0.10000,-0.0000,-0.0000,-0.0000,0.0000
-0.0040000,0.0040000,-0.10000,-0.0000,-0.0000,-0.0000,0.0000
-0.0030000,0.0040000,-0.10000,-0.0000,-0.0000,-0.0000,0.0000
-0.0020000,0.0040000,-0.10000,-0.0000,-0.0000,-0.0000,0.0000
-0.0010000,0.0040000,-0.10000,-0.0000,-0.0000,-0.0000,0.0000
7.5856E-20,0.0040000,-0.10000,-0.0000,-0.0000,-0.0000,0.0000
0.0010000,0.0040000,-0.10000,-0.0000,-0.0000,-0.0000,0.0000
0.0020000,0.0040000,-0.10000,-0.0000,-0.0000,-0.0000,0.0000
0.0030000,0.0040000,-0.10000,-0.0000,-0.0000,-0.0000,0.0000
0.0040000,0.0040000,-0.10000,-0.0000,-0.0000,-0.0000,0.0000
0.0050000,0.0040000,-0.10000,-0.0000,-0.0000,-0.0000,0.0000
-0.0050000,0.0050000,-0.10000,-0.0000,-0.0000,-0.0000,0.0000
-0.0040000,0.0050000,-0.10000,-0.0000,-0.0000,-0.0000,0.0000
-0.0030000,0.0050000,-0.10000,-0.0000,-0.0000,-0.0000,0.0000
-0.0020000,0.0050000,-0.10000,-0.0000,-0.0000,-0.0000,0.0000
-0.0010000,0.0050000,-0.10000,-0.0000,-0.0000,-0.0000,0.0000
2.7105E-19,0.0050000,-0.10000,-0.0000,-0.0000,-0.0000,0.0000
0.0010000,0.0050000,-0.10000,-0.0000,-0.0000,-0.0000,0.0000
0.0020000,0.0050000,-0.10000,-0.0000,-0.0000,-0.0000,0.0000
0.0030000,0.0050000,-0.10000,-0.0000,-0.0000,-0.0000,0.0000
0.0040000,0.0050000,-0.10000,-0.0000,-0.0000,-0.0000,0.0000
0.0050000,0.0050000,-0.10000,-0.0000,-0.0000,-0.0000,0.0000
-0.0050000,-0.0050000,-0.099000,-7.3066E-23,-4.9606E-23,-6.2313E-9,1.7295E-25
-0.0040000,-0.0050000,-0.099000,-5.1774E-23,-7.4740E-23,-7.6951E-9,2.1358E-25
-0.0030000,-0.0050000,-0.099000,-4.3152E-23,-7.6334E-23,-9.4918E-9,2.6345E-25
-0.0020000,-0.0050000,-0.099000,-2.9952E-23,-7.9217E-23,-1.0862E-8,3.0147E-25
-0.0010000,-0.0050000,-0.099000,-1.4181E-23,-8.1526E-23,-1.1712E-8,3.2507E-25
-4.8052E-20,-0.0050000,-0.099000,-1.4181E-23,-8.1526E-23,-1.2223E-8,3.3925E-25
0.0010000,-0.0050000,-0.099000,3.3826E-23,-7.7434E-23,-1.2121E-8,3.4500E-25
0.0020000,-0.0050000,-0.099000,3.2363E-23,-7.3965E-23,-1.0973E-8,3.0745E-25
0.0030000,-0.0050000,-0.099000,3.2367E-23,-7.8693E-23,-9.8241E-9,2.7590E-25
0.0040000,-0.0050000,-0.099000,5.6331E-23,-6.2584E-23,-7.9422E-9,2.1756E-25
0.0050000,-0.0050000,-0.099000,5.6992E-23,-6.3797E-23,-5.9167E-9,1.6200E-25
-0.0050000,-0.0040000,-0.099000,-7.3066E-23,-4.9606E-23,-8.0185E-9,2.2256E-25
-0.0040000,-0.0040000,-0.099000,-6.5347E-23,-5.9203E-23,-1.0119E-8,2.8085E-25
-0.0030000,-0.0040000,-0.099000,-5.7915E-23,-5.7917E-23,-1.2164E-8,3.3763E-25
-0.0020000,-0.0040000,-0.099000,-5.1248E-23,-6.0419E-23,-1.4032E-8,3.8946E-25
-0.0010000,-0.0040000,-0.099000,-2.2877E-23,-7.6539E-23,-1.4561E-8,4.0416E-25
-8.6221E-20,-0.0040000,-0.099000,7.4181E-24,-7.8775E-23,-1.5043E-8,4.1753E-25
0.0010000,-0.0040000,-0.099000,1.9637E-23,-7.6304E-23,-1.4559E-8,4.0410E-25
0.0020000,-0.0040000,-0.099000,3.6269E-23,-7.1215E-23,-1.3714E-8,3.8063E-25
0.0030000,-0.0040000,-0.099000,6.0365E-23,-5.7851E-23,-1.2365E-8,3.4320E-25
0.0040000,-0.0040000,-0.099000,5.6011E-23,-6.1640E-23,-1.0257E-8,2.8079E-25
0.0050000,-0.0040000,-0.099000,7.0113E-23,-5.6357E-23,-8.0707E-9,2.2401E-25
-0.0050000,-0.0030000,-0.099000,-7.6162E-23,-4.0897E-23,-9.6853E-9,2.6882E-25
-0.0040000,-0.0030000,-0.099000,-7.6162E-23,-4.0897E-23,-1.2429E-8,3.4498E-25
-0.0030000,-0.0030000,-0.099000,-5.7484E-23,-5.3022E-23,-1.4237E-8,3.9516E-25
-0.0020000,-0.0030000,-0.099000,-4.9168E-23,-5.4809E-23,-1.6142E-8,4.4802E-25
-0.0010000,-0.0030000,-0.099000,-3.0958E-23,-7.1997E-23,-1.7657E-8,4.9008E-25
0.0000,-0.0030000,-0.099000,-3.6493E-24,-8.7539E-23,-1.8256E-8,5.0671E-25
0.0010000,-0.0030000,-0.099000,1.9093E-23,-7.8310E-23,-1.7344E-8,4.8141E-25
0.0020000,-0.0030000,-0.099000,4.4591E-23,-6.3610E-23,-1.6079E-8,4.4627E-25
0.0030000,-0.0030000,-0.099000,6.0365E-23,-5.7851E-23,-1.4450E-8,4.0106E-25
0.0040000,-0.0030000,-0.099000,6.1315E-23,-4.9626E-23,-1.2241E-8,3.3976E-25
0.0050000,-0.0030000,-0.099000,7.7154E-23,-3.9247E-23,-9.7596E-9,2.6664E-25
-0.0050000,-0.0020000,-0.099000,-7.8480E-23,-3.9841E-23,-1.0719E-8,2.9752E-25
-0.0040000,-0.0020000,-0.099000,-7.8480E-23,-3.9841E-23,-1.3547E-8,3.7600E-25
-0.0030000,-0.0020000,-0.099000,-6.3689E-23,-4.5922E-23,-1.6097E-8,4.4678E-25
-0.0020000,-0.0020000,-0.099000,-7.3115E-23,-4.7501E-23,-1.9160E-8,5.3178E-25
-0.0010000,-0.0020000,-0.099000,-3.0639E-23,-7.4534E-23,-2.0335E-8,5.6442E-25
1.6941E-21,-0.0020000,-0.099000,-7.8789E-22,4.6298E-22,-2.1419E-8,4.1177E-25
0.0010000,-0.0020000,-0.099000,6.9205E-22,-2.1962E-22,-2.1258E-8,7.3165E-25
0.0020000,-0.0020000,-0.099000,5.0941E-23,-5.9793E-23,-1.8769E-8,5.2094E-25
0.0030000,-0.0020000,-0.099000,6.5518E-23,-5.2186E-23,-1.6305E-8,4.5257E-25
0.0040000,-0.0020000,-0.099000,6.8385E-23,-4.2999E-23,-1.3892E-8,3.8559E-25
0.0050000,-0.0020000,-0.099000,7.8525E-23,-3.8844E-23,-1.1159E-8,3.0971E-25
-0.0050000,-0.0010000,-0.099000,-8.4844E-23,-1.3777E-23,-1.1821E-8,3.2810E-25
-0.0040000,-0.0010000,-0.099000,-7.4491E-23,-1.5938E-23,-1.4629E-8,4.0603E-25
-0.0030000,-0.0010000,-0.099000,-7.5954E-23,-1.5320E-23,-1.7346E-8,4.8145E-25
-0.0020000,-0.0010000,-0.099000,-3.6696E-22,-1.8445E-22,-2.0761E-8,6.0084E-25
-0.0010000,-0.0010000,-0.099000,-4.0587E-9,-4.6231E-9,-1.3320E-8,5.7332E-12
3.7269E-20,-0.0010000,-0.099000,4.6857E-10,-3.2889E-9,-1.2410E-8,7.9767E-12
0.0010000,-0.0010000,-0.099000,4.8682E-9,-3.9724E-9,-1.3432E-8,5.8092E-12
0.0020000,-0.0010000,-0.099000,8.2689E-23,-3.9832E-23,-2.0473E-8,5.6951E-25
0.0030000,-0.0010000,-0.099000,7.0601E-23,-2.8691E-23,-1.7511E-8,4.8602E-25
0.0040000,-0.0010000,-0.099000,7.5898E-23,-1.3297E-23,-1.4712E-8,4.0833E-25
0.0050000,-0.0010000,-0.099000,8.3342E-23,-1.5551E-23,-1.1807E-8,3.2770E-25
-0.0050000,-1.6263E-19,-0.099000,-7.7220E-23,3.4600E-24,-1.2344E-8,3.4262E-25
-0.0040000,-6.8487E-21,-0.099000,-7.5867E-23,-5.5550E-24,-1.5014E-8,4.1672E-25
-0.0030000,-2.7105E-20,-0.099000,-9.5492E-23,-8.2418E-24,-1.8342E-8,5.0910E-25
-0.0020000,5.5505E-20,-0.099000,7.0917E-22,-5.7092E-22,-2.0656E-8,6.1993E-25
-0.0010000,-8.4247E-21,-0.099000,-3.5962E-9,-7.3390E-11,-1.2756E-8,7.9723E-12
2.7105E-20,2.7105E-20,-0.099000,5.3404E-11,2.3211E-11,-1.2031E-8,9.7491E-12
0.0010000,-1.3553E-20,-0.099000,3.4901E-9,-1.1965E-10,-1.2533E-8,7.9761E-12
0.0020000,-1.5407E-32,-0.099000,1.5252E-21,-1.4538E-21,-2.1815E-8,9.3395E-25
0.0030000,5.4210E-20,-0.099000,1.0466E-22,5.8483E-24,-1.8044E-8,5.0083E-25
0.0040000,-1.2197E-19,-0.099000,7.7099E-23,1.1897E-23,-1.5046E-8,4.1761E-25
0.0050000,-1.8129E-19,-0.099000,8.1041E-23,9.6379E-24,-1.2106E-8,3.3602E-25
-0.0050000,0.0010000,-0.099000,-8.1106E-23,2.7591E-23,-1.2092E-8,3.3561E-25
-0.0040000,0.0010000,-0.099000,-7.6558E-23,1.5744E-23,-1.4912E-8,4.1390E-25
-0.0030000,0.0010000,-0.099000,-8.5080E-23,1.8735E-23,-1.7352E-8,4.8162E-25
-0.0020000,0.0010000,-0.099000,-8.5080E-23,1.8735E-23,-2.0417E-8,5.6670E-25
-0.0010000,0.0010000,-0.099000,-4.6746E-9,3.3811E-9,-1.3317E-8,5.7512E-12
-1.3553E-19,0.0010000,-0.099000,-6.1848E-11,4.1413E-9,-1.2877E-8,7.7981E-12
0.0010000,0.0010000,-0.099000,4.7719E-9,3.9955E-9,-1.3333E-8,5.7725E-12
0.0020000,0.0010000,-0.099000,8.0542E-23,5.4069E-23,-2.0462E-8,5.6794E-25
0.0030000,0.0010000,-0.099000,7.6398E-23,2.2530E-23,-1.7340E-8,4.8127E-25
0.0040000,0.0010000,-0.099000,7.6398E-23,2.2530E-23,-1.4587E-8,4.0487E-25
0.0050000,0.0010000,-0.099000,8.2738E-23,1.2118E-23,-1.1710E-8,3.2501E-25
-0.0050000,0.0020000,-0.099000,-8.1106E-23,2.7591E-23,-1.1098E-8,3.0802E-25
-0.0040000,0.0020000,-0.099000,-6.6862E-23,3.3577E-23,-1.3779E-8,3.8243E-25
-0.0030000,0.0020000,-0.099000,-5.8033E-23,4.8356E-23,-1.5997E-8,4.4399E-25
-0.0020000,0.0020000,-0.099000,-7.7234E-23,6.5488E-23,-1.8618E-8,5.1676E-25
-0.0010000,0.0020000,-0.099000,-8.3556E-22,-7.1698E-22,-2.0263E-8,1.4084E-25
4.1909E-19,0.0020000,-0.099000,1.0573E-21,-9.1922E-23,-2.1550E-8,-8.1314E-25
0.0010000,0.0020000,-0.099000,4.0492E-23,8.1867E-23,-2.0240E-8,5.6177E-25
0.0020000,0.0020000,-0.099000,4.0492E-23,8.1867E-23,-1.8781E-8,5.2128E-25
0.0030000,0.0020000,-0.099000,6.4562E-23,4.2024E-23,-1.6163E-8,4.4863E-25
0.0040000,0.0020000,-0.099000,7.2767E-23,3.5415E-23,-1.3425E-8,3.7262E-25
0.0050000,0.0020000,-0.099000,7.2767E-23,3.5415E-23,-1.0803E-8,2.9985E-25
-0.0050000,0.0030000,-0.099000,-7.0738E-23,5.2472E-23,-9.6463E-9,2.6774E-25
-0.0040000,0.0030000,-0.099000,-5.8517E-23,6.2815E-23,-1.2220E-8,3.3917E-25
-0.0030000,0.0030000,-0.099000,-6.0748E-23,4.9549E-23,-1.4254E-8,3.9563E-25
-0.0020000,0.0030000,-0.099000,-5.0384E-23,5.3505E-23,-1.6076E-8,4.4620E-25
-0.0010000,0.0030000,-0.099000,-2.4613E-23,7.4278E-23,-1.7128E-8,4.7539E-25
6.9397E-20,0.0030000,-0.099000,-1.2192E-23,7.4655E-23,-1.7756E-8,4.9282E-25
0.0010000,0.0030000,-0.099000,3.6662E-23,7.0827E-23,-1.7277E-8,4.7952E-25
0.0020000,0.0030000,-0.099000,4.2004E-23,6.0670E-23,-1.5884E-8,4.4087E-25
0.0030000,0.0030000,-0.099000,5.1206E-23,5.8515E-23,-1.4095E-8,3.9122E-25
0.0040000,0.0030000,-0.099000,7.2996E-23,4.5556E-23,-1.1828E-8,3.2831E-25
0.0050000,0.0030000,-0.099000,7.1935E-23,4.5275E-23,-9.4889E-9,2.6337E-25
-0.0050000,0.0040000,-0.099000,-7.0738E-23,5.2472E-23,-7.7558E-9,2.1527E-25
-0.0040000,0.0040000,-0.099000,-5.6787E-23,6.1624E-23,-9.9686E-9,2.7669E-25
-0.0030000,0.0040000,-0.099000,-5.0071E-23,6.4939E-23,-1.1993E-8,3.3288E-25
-0.0020000,0.0040000,-0.099000,-3.1030E-23,8.2183E-23,-1.3595E-8,3.7735E-25
-0.0010000,0.0040000,-0.099000,-2.4610E-23,7.5195E-23,-1.4439E-8,4.0077E-25
1.8575E-20,0.0040000,-0.099000,-1.3204E-23,7.7326E-23,-1.5052E-8,4.1778E-25
0.0010000,0.0040000,-0.099000,3.5536E-23,6.8482E-23,-1.4731E-8,4.0888E-25
0.0020000,0.0040000,-0.099000,3.5536E-23,6.8482E-23,-1.3451E-8,3.7334E-25
0.0030000,0.0040000,-0.099000,4.5055E-23,7.1048E-23,-1.1849E-8,3.2889E-25
0.0040000,0.0040000,-0.099000,7.2996E-23,4.5556E-23,-1.0187E-8,2.8275E-25
0.0050000,0.0040000,-0.099000,7.3287E-23,5.3139E-23,-7.8462E-9,2.1778E-25
-0.0050000,0.0050000,-0.099000,-5.3988E-23,7.0655E-23,-5.8547E-9,1.6250E-25
-0.0040000,0.0050000,-0.099000,-5.3988E-23,7.0655E-23,-7.7998E-9,2.1649E-25
-0.0030000,0.0050000,-0.099000,-3.0189E-23,7.9547E-23,-9.5414E-9,2.6483E-25
-0.0020000,0.0050000,-0.099000,-3.1030E-23,8.2183E-23,-1.0634E-8,2.9516E-25
-0.0010000,0.0050000,-0.099000,-2.4610E-23,7.5195E-23,-1.1730E-8,3.2558E-25
-5.4210E-20,0.0050000,-0.099000,6.8446E-24,8.3717E-23,-1.1771E-8,3.2672E-25
0.0010000,0.0050000,-0.099000,6.8446E-24,8.3717E-23,-1.1525E-8,3.1988E-25
0.0020000,0.0050000,-0.099000,4.5055E-23,7.1048E-23,-1.0913E-8,3.0289E-25
0.0030000,0.0050000,-0.099000,3.6343E-23,7.7588E-23,-9.3719E-9,2.6012E-25
0.0040000,0.0050000,-0.099000,5.5066E-23,6.8668E-23,-7.5559E-9,2.0972E-25
0.0050000,0.0050000,-0.099000,7.3287E-23,5.3139E-23,-5.9317E-9,1.6464E-25
-0.0050000,-0.0050000,-0.098000,-2.4728E-9,-2.2714E-9,-6.2013E-9,5.9578E-12
-0.0040000,-0.0050000,-0.098000,-1.9177E-9,-2.7553E-9,-8.4637E-9,8.0904E-12
-0.0030000,-0.0050000,-0.098000,-1.6893E-9,-3.0808E-9,-1.0350E-8,9.8936E-12
-0.0020000,-0.0050000,-0.098000,-1.2198E-9,-2.6682E-9,-1.1792E-8,1.1348E-11
-0.0010000,-0.0050000,-0.098000,-4.1440E-10,-2.5890E-9,-1.2760E-8,1.2208E-11
-1.0842E-19,-0.0050000,-0.098000,-2.2246E-10,-3.1666E-9,-1.2801E-8,1.2527E-11
0.0010000,-0.0050000,-0.098000,6.7881E-10,-2.9439E-9,-1.2563E-8,1.2234E-11
0.0020000,-0.0050000,-0.098000,1.1860E-9,-2.7626E-9,-1.1628E-8,1.1322E-11
0.0030000,-0.0050000,-0.098000,1.5386E-9,-2.7702E-9,-1.0094E-8,9.9956E-12
0.0040000,-0.0050000,-0.098000,2.0255E-9,-2.3147E-9,-8.4685E-9,8.2054E-12
0.0050000,-0.0050000,-0.098000,2.2792E-9,-2.1737E-9,-6.2368E-9,6.1071E-12
-0.0050000,-0.0040000,-0.098000,-2.5155E-9,-2.0057E-9,-8.3196E-9,8.0399E-12
-0.0040000,-0.0040000,-0.098000,-2.3958E-9,-2.1621E-9,-1.0833E-8,1.0452E-11
-0.0030000,-0.0040000,-0.098000,-1.9154E-9,-2.3068E-9,-1.2868E-8,1.2526E-11
-0.0020000,-0.0040000,-0.098000,-1.2886E-9,-2.6732E-9,-1.4308E-8,1.4056E-11
-0.0010000,-0.0040000,-0.098000,-5.1121E-10,-2.9018E-9,-1.5335E-8,1.5040E-11
5.4210E-20,-0.0040000,-0.098000,1.5093E-10,-2.8490E-9,-1.5692E-8,1.5375E-11
0.0010000,-0.0040000,-0.098000,7.0751E-10,-2.7492E-9,-1.5432E-8,1.4996E-11
0.0020000,-0.0040000,-0.098000,1.5065E-9,-2.6326E-9,-1.4433E-8,1.4042E-11
0.0030000,-0.0040000,-0.098000,1.7549E-9,-2.3301E-9,-1.2702E-8,1.2549E-11
0.0040000,-0.0040000,-0.098000,2.0805E-9,-2.2501E-9,-1.0870E-8,1.0546E-11
0.0050000,-0.0040000,-0.098000,2.5236E-9,-2.0358E-9,-8.3676E-9,8.2376E-12
-0.0050000,-0.0030000,-0.098000,-2.7692E-9,-1.4282E-9,-1.0204E-8,9.8519E-12
-0.0040000,-0.0030000,-0.098000,-2.4379E-9,-1.7232E-9,-1.2878E-8,1.2527E-11
-0.0030000,-0.0030000,-0.098000,-2.0866E-9,-2.0867E-9,-1.4956E-8,1.4603E-11
-0.0020000,-0.0030000,-0.098000,-1.6790E-9,-2.2608E-9,-1.6817E-8,1.6476E-11
-0.0010000,-0.0030000,-0.098000,-6.6036E-10,-2.3550E-9,-1.7814E-8,1.7640E-11
1.3553E-20,-0.0030000,-0.098000,1.5588E-10,-2.7842E-9,-1.8238E-8,1.8114E-11
0.0010000,-0.0030000,-0.098000,7.3842E-10,-2.5033E-9,-1.7830E-8,1.7714E-11
0.0020000,-0.0030000,-0.098000,1.6066E-9,-2.2918E-9,-1.6860E-8,1.6470E-11
0.0030000,-0.0030000,-0.098000,2.0340E-9,-2.0781E-9,-1.5032E-8,1.4741E-11
0.0040000,-0.0030000,-0.098000,2.3098E-9,-1.5225E-9,-1.2789E-8,1.2526E-11
0.0050000,-0.0030000,-0.098000,2.7410E-9,-1.4370E-9,-1.0213E-8,1.0001E-11
-0.0050000,-0.0020000,-0.098000,-2.8126E-9,-1.4112E-9,-1.1706E-8,1.1231E-11
-0.0040000,-0.0020000,-0.098000,-2.6677E-9,-1.4755E-9,-1.4474E-8,1.4036E-11
-0.0030000,-0.0020000,-0.098000,-2.1916E-9,-1.8141E-9,-1.7007E-8,1.6461E-11
-0.0020000,-0.0020000,-0.098000,-1.8447E-9,-1.8262E-9,-1.8487E-8,1.8583E-11
-0.0010000,-0.0020000,-0.098000,-3.1748E-9,-2.2866E-9,-1.8711E-8,2.0264E-11
2.7105E-20,-0.0020000,-0.098000,9.7528E-11,-2.8463E-9,-1.9258E-8,2.0868E-11
0.0010000,-0.0020000,-0.098000,1.2016E-9,-2.6470E-9,-1.8956E-8,2.0188E-11
0.0020000,-0.0020000,-0.098000,1.8026E-9,-1.8332E-9,-1.8480E-8,1.8631E-11
0.0030000,-0.0020000,-0.098000,2.3148E-9,-1.3966E-9,-1.6315E-8,1.6470E-11
0.0040000,-0.0020000,-0.098000,2.4611E-9,-1.2692E-9,-1.4235E-8,1.4031E-11
0.0050000,-0.0020000,-0.098000,2.8485E-9,-1.1210E-9,-1.1520E-8,1.1369E-11
-0.0050000,-0.0010000,-0.098000,-3.1174E-9,-5.2946E-10,-1.2471E-8,1.2078E-11
-0.0040000,-0.0010000,-0.098000,-3.0110E-9,-5.1955E-10,-1.5543E-8,1.5054E-11
-0.0030000,-0.0010000,-0.098000,-2.4846E-9,-7.4659E-10,-1.7832E-8,1.7698E-11
-0.0020000,-0.0010000,-0.098000,-2.5171E-9,-2.2581E-9,-1.8915E-8,2.0199E-11
-0.0010000,-0.0010000,-0.098000,-2.0236E-9,-2.1176E-9,-1.8594E-8,2.2694E-11
5.2516E-20,-0.0010000,-0.098000,3.6559E-10,-1.9703E-9,-1.8979E-8,2.3652E-11
0.0010000,-0.0010000,-0.098000,2.0990E-9,-2.1187E-9,-1.8579E-8,2.2593E-11
0.0020000,-0.0010000,-0.098000,2.6897E-9,-1.1094E-9,-1.8976E-8,2.0116E-11
0.0030000,-0.0010000,-0.098000,2.4666E-9,-8.3107E-10,-1.7307E-8,1.7572E-11
0.0040000,-0.0010000,-0.098000,2.7345E-9,-4.7906E-10,-1.5288E-8,1.5000E-11
0.0050000,-0.0010000,-0.098000,3.0153E-9,-5.7425E-10,-1.2515E-8,1.2170E-11
-0.0050000,1.2197E-19,-0.098000,-2.9571E-9,-5.4173E-11,-1.2812E-8,1.2488E-11
-0.0040000,1.3553E-19,-0.098000,-2.7204E-9,8.0815E-11,-1.5576E-8,1.5338E-11
-0.0030000,-8.1315E-20,-0.098000,-2.5817E-9,1.8486E-10,-1.8128E-8,1.7981E-11
-0.0020000,-1.3553E-20,-0.098000,-3.1338E-9,-3.7632E-11,-1.9125E-8,2.0898E-11
-0.0010000,-2.7105E-20,-0.098000,-2.1379E-9,5.8551E-10,-1.8391E-8,2.3575E-11
2.6893E-20,1.2176E-19,-0.098000,-2.7930E-10,1.3605E-11,-1.7879E-8,2.4798E-11
0.0010000,0.0000,-0.098000,2.1336E-9,-2.0292E-10,-1.8131E-8,2.3765E-11
0.0020000,2.0329E-20,-0.098000,3.5186E-9,-7.2761E-10,-1.8248E-8,2.0987E-11
0.0030000,5.4210E-20,-0.098000,2.8189E-9,-7.7360E-11,-1.8048E-8,1.8016E-11
0.0040000,3.3881E-20,-0.098000,2.7365E-9,9.2716E-11,-1.5556E-8,1.5322E-11
0.0050000,-3.3881E-20,-0.098000,2.8932E-9,1.8306E-10,-1.2727E-8,1.2448E-11
-0.0050000,0.0010000,-0.098000,-2.9276E-9,6.6731E-10,-1.2273E-8,1.2297E-11
-0.0040000,0.0010000,-0.098000,-2.5725E-9,8.3908E-10,-1.4943E-8,1.4919E-11
-0.0030000,0.0010000,-0.098000,-2.4156E-9,7.9893E-10,-1.7675E-8,1.7417E-11
-0.0020000,0.0010000,-0.098000,-2.9024E-9,1.3847E-9,-1.9248E-8,1.9959E-11
-0.0010000,0.0010000,-0.098000,-2.2374E-9,2.1286E-9,-1.8186E-8,2.2476E-11
0.0000,0.0010000,-0.098000,-3.2727E-10,2.4101E-9,-1.7934E-8,2.3728E-11
0.0010000,0.0010000,-0.098000,2.0278E-9,2.3607E-9,-1.8489E-8,2.2809E-11
0.0020000,0.0010000,-0.098000,2.1577E-9,1.0108E-9,-1.8140E-8,2.0271E-11
0.0030000,0.0010000,-0.098000,2.7285E-9,9.9892E-10,-1.7743E-8,1.7599E-11
0.0040000,0.0010000,-0.098000,2.6491E-9,6.3526E-10,-1.5250E-8,1.4933E-11
0.0050000,0.0010000,-0.098000,3.0413E-9,4.3641E-10,-1.2464E-8,1.2076E-11
-0.0050000,0.0020000,-0.098000,-2.9238E-9,1.0019E-9,-1.1577E-8,1.1243E-11
-0.0040000,0.0020000,-0.098000,-2.4744E-9,1.3068E-9,-1.4129E-8,1.3942E-11
-0.0030000,0.0020000,-0.098000,-2.1830E-9,1.4735E-9,-1.6392E-8,1.6221E-11
-0.0020000,0.0020000,-0.098000,-1.9293E-9,1.7518E-9,-1.8388E-8,1.8308E-11
-0.0010000,0.0020000,-0.098000,-1.3810E-9,2.8743E-9,-1.9439E-8,1.9985E-11
0.0000,0.0020000,-0.098000,-1.2774E-10,2.3591E-9,-1.8235E-8,2.0680E-11
0.0010000,0.0020000,-0.098000,1.4563E-9,3.1209E-9,-1.9435E-8,2.0150E-11
0.0020000,0.0020000,-0.098000,1.9456E-9,1.9934E-9,-1.8494E-8,1.8474E-11
0.0030000,0.0020000,-0.098000,2.1617E-9,1.5332E-9,-1.6681E-8,1.6376E-11
0.0040000,0.0020000,-0.098000,2.8251E-9,1.3159E-9,-1.4377E-8,1.3893E-11
0.0050000,0.0020000,-0.098000,2.5894E-9,1.2357E-9,-1.1635E-8,1.1240E-11
-0.0050000,0.0030000,-0.098000,-2.7209E-9,1.6771E-9,-1.0100E-8,9.9001E-12
-0.0040000,0.0030000,-0.098000,-2.2612E-9,1.7931E-9,-1.2594E-8,1.2399E-11
-0.0030000,0.0030000,-0.098000,-1.7768E-9,1.9794E-9,-1.4771E-8,1.4526E-11
-0.0020000,0.0030000,-0.098000,-1.5149E-9,2.2545E-9,-1.6482E-8,1.6300E-11
-0.0010000,0.0030000,-0.098000,-8.5139E-10,2.4684E-9,-1.7484E-8,1.7365E-11
-5.4210E-20,0.0030000,-0.098000,-2.5850E-10,2.4944E-9,-1.7989E-8,1.7782E-11
0.0010000,0.0030000,-0.098000,9.5813E-10,2.4241E-9,-1.7702E-8,1.7402E-11
0.0020000,0.0030000,-0.098000,1.3209E-9,2.5518E-9,-1.6419E-8,1.6187E-11
0.0030000,0.0030000,-0.098000,1.6780E-9,2.1026E-9,-1.4978E-8,1.4469E-11
0.0040000,0.0030000,-0.098000,2.6103E-9,1.6863E-9,-1.2791E-8,1.2324E-11
0.0050000,0.0030000,-0.098000,2.6089E-9,1.6332E-9,-1.0085E-8,9.7022E-12
-0.0050000,0.0040000,-0.098000,-2.5459E-9,1.9668E-9,-8.2771E-9,8.0374E-12
-0.0040000,0.0040000,-0.098000,-2.0460E-9,2.2202E-9,-1.0606E-8,1.0287E-11
-0.0030000,0.0040000,-0.098000,-1.8040E-9,2.3397E-9,-1.2562E-8,1.2277E-11
-0.0020000,0.0040000,-0.098000,-1.1996E-9,2.5713E-9,-1.4152E-8,1.3920E-11
-0.0010000,0.0040000,-0.098000,-4.7572E-10,2.7860E-9,-1.4890E-8,1.4734E-11
-1.3553E-20,0.0040000,-0.098000,-8.8118E-11,2.7860E-9,-1.5328E-8,1.5141E-11
0.0010000,0.0040000,-0.098000,6.7073E-10,2.6750E-9,-1.5052E-8,1.4852E-11
0.0020000,0.0040000,-0.098000,1.5540E-9,2.2888E-9,-1.4342E-8,1.3700E-11
0.0030000,0.0040000,-0.098000,1.5879E-9,2.3218E-9,-1.2605E-8,1.2290E-11
0.0040000,0.0040000,-0.098000,2.1833E-9,2.3232E-9,-1.0687E-8,1.0405E-11
0.0050000,0.0040000,-0.098000,2.6053E-9,1.9352E-9,-8.2059E-9,8.0149E-12
-0.0050000,0.0050000,-0.098000,-2.3433E-9,2.3433E-9,-6.0515E-9,5.9581E-12
-0.0040000,0.0050000,-0.098000,-1.9747E-9,2.4776E-9,-8.2227E-9,7.9875E-12
-0.0030000,0.0050000,-0.098000,-1.5688E-9,2.8565E-9,-1.0089E-8,9.8613E-12
-0.0020000,0.0050000,-0.098000,-1.1180E-9,2.9610E-9,-1.1480E-8,1.1057E-11
-0.0010000,0.0050000,-0.098000,-6.5252E-10,2.8380E-9,-1.2303E-8,1.2048E-11
-2.7105E-20,0.0050000,-0.098000,1.6633E-10,2.9860E-9,-1.2631E-8,1.2228E-11
0.0010000,0.0050000,-0.098000,3.2745E-10,2.9850E-9,-1.2377E-8,1.2004E-11
0.0020000,0.0050000,-0.098000,1.5089E-9,2.8030E-9,-1.1443E-8,1.1131E-11
0.0030000,0.0050000,-0.098000,1.3433E-9,2.8250E-9,-1.0050E-8,9.7048E-12
0.0040000,0.0050000,-0.098000,2.2643E-9,2.5076E-9,-8.2354E-9,7.9113E-12
0.0050000,0.0050000,-0.098000,2.1297E-9,2.3523E-9,-6.0844E-9,5.8712E-12
-0.0050000,-0.0050000,-0.097000,-4.8194E-9,-4.7876E-9,-6.6769E-9,1.2397E-11
-0.0040000,-0.0050000,-0.097000,-4.0398E-9,-5.0507E-9,-9.0720E-9,1.6858E-11
-0.0030000,-0.0050000,-0.097000,-3.3598E-9,-5.4334E-9,-1.0994E-8,2.0587E-11
-0.0020000,-0.0050000,-0.097000,-2.3514E-9,-5.8718E-9,-1.2564E-8,2.3449E-11
-0.0010000,-0.0050000,-0.097000,-9.9408E-10,-6.0472E-9,-1.3518E-8,2.5113E-11
0.0000,-0.0050000,-0.097000,-1.5974E-10,-6.1612E-9,-1.3958E-8,2.5661E-11
0.0010000,-0.0050000,-0.097000,1.1063E-9,-5.9778E-9,-1.3889E-8,2.5309E-11
0.0020000,-0.0050000,-0.097000,2.4038E-9,-5.7704E-9,-1.2729E-8,2.3408E-11
0.0030000,-0.0050000,-0.097000,3.2990E-9,-5.4366E-9,-1.1166E-8,2.0521E-11
0.0040000,-0.0050000,-0.097000,3.7935E-9,-5.2826E-9,-9.1529E-9,1.6889E-11
0.0050000,-0.0050000,-0.097000,4.7676E-9,-4.6482E-9,-6.6948E-9,1.2468E-11
-0.0050000,-0.0040000,-0.097000,-5.2750E-9,-4.3280E-9,-9.3421E-9,1.6770E-11
-0.0040000,-0.0040000,-0.097000,-4.5347E-9,-4.4857E-9,-1.1576E-8,2.1659E-11
-0.0030000,-0.0040000,-0.097000,-3.5619E-9,-4.8221E-9,-1.3532E-8,2.5726E-11
-0.0020000,-0.0040000,-0.097000,-2.8234E-9,-5.0668E-9,-1.5774E-8,2.8919E-11
-0.0010000,-0.0040000,-0.097000,-1.1948E-9,-5.4349E-9,-1.6743E-8,3.0915E-11
-2.4395E-19,-0.0040000,-0.097000,-2.9048E-11,-5.6379E-9,-1.7113E-8,3.1527E-11
0.0010000,-0.0040000,-0.097000,1.3732E-9,-5.3900E-9,-1.6913E-8,3.0992E-11
0.0020000,-0.0040000,-0.097000,2.6708E-9,-5.0943E-9,-1.5715E-8,2.8941E-11
0.0030000,-0.0040000,-0.097000,3.6545E-9,-4.9212E-9,-1.4113E-8,2.5675E-11
0.0040000,-0.0040000,-0.097000,4.4516E-9,-4.5129E-9,-1.1812E-8,2.1729E-11
0.0050000,-0.0040000,-0.097000,5.2118E-9,-4.0937E-9,-9.0571E-9,1.6780E-11
-0.0050000,-0.0030000,-0.097000,-5.5966E-9,-3.2066E-9,-1.1160E-8,2.0538E-11
-0.0040000,-0.0030000,-0.097000,-4.8219E-9,-3.6077E-9,-1.3575E-8,2.5753E-11
-0.0030000,-0.0030000,-0.097000,-4.0402E-9,-4.0894E-9,-1.6294E-8,3.0199E-11
-0.0020000,-0.0030000,-0.097000,-3.0249E-9,-4.5045E-9,-1.8201E-8,3.3702E-11
-0.0010000,-0.0030000,-0.097000,-1.2210E-9,-4.4449E-9,-1.9030E-8,3.6069E-11
6.7763E-21,-0.0030000,-0.097000,1.5662E-10,-4.5548E-9,-1.9563E-8,3.6724E-11
0.0010000,-0.0030000,-0.097000,1.5022E-9,-4.4186E-9,-1.9100E-8,3.5858E-11
0.0020000,-0.0030000,-0.097000,2.9715E-9,-4.6991E-9,-1.7555E-8,3.3696E-11
0.0030000,-0.0030000,-0.097000,3.8453E-9,-4.1135E-9,-1.6403E-8,3.0303E-11
0.0040000,-0.0030000,-0.097000,5.0273E-9,-3.5454E-9,-1.4091E-8,2.5887E-11
0.0050000,-0.0030000,-0.097000,5.4925E-9,-3.2650E-9,-1.1236E-8,2.0578E-11
-0.0050000,-0.0020000,-0.097000,-6.1146E-9,-2.7083E-9,-1.2595E-8,2.3442E-11
-0.0040000,-0.0020000,-0.097000,-4.9050E-9,-2.4076E-9,-1.4863E-8,2.8782E-11
-0.0030000,-0.0020000,-0.097000,-4.7735E-9,-2.9620E-9,-1.7938E-8,3.3558E-11
-0.0020000,-0.0020000,-0.097000,-3.0523E-9,-3.3799E-9,-1.9471E-8,3.7349E-11
-0.0010000,-0.0020000,-0.097000,-2.0290E-9,-3.6768E-9,-2.0552E-8,3.9911E-11
8.1315E-20,-0.0020000,-0.097000,2.2429E-10,-3.6955E-9,-2.1193E-8,4.0753E-11
0.0010000,-0.0020000,-0.097000,1.5841E-9,-3.2934E-9,-2.0866E-8,3.9847E-11
0.0020000,-0.0020000,-0.097000,3.1341E-9,-3.1239E-9,-1.9649E-8,3.7551E-11
0.0030000,-0.0020000,-0.097000,4.6494E-9,-2.7895E-9,-1.8245E-8,3.3678E-11
0.0040000,-0.0020000,-0.097000,5.2995E-9,-2.5163E-9,-1.5721E-8,2.8787E-11
0.0050000,-0.0020000,-0.097000,5.6002E-9,-2.3551E-9,-1.2917E-8,2.3294E-11
-0.0050000,-0.0010000,-0.097000,-5.9521E-9,-1.0593E-9,-1.3723E-8,2.5175E-11
-0.0040000,-0.0010000,-0.097000,-5.1380E-9,-1.3381E-9,-1.6355E-8,3.0655E-11
-0.0030000,-0.0010000,-0.097000,-4.5775E-9,-1.6504E-9,-1.8933E-8,3.5864E-11
-0.0020000,-0.0010000,-0.097000,-3.8354E-9,-1.8206E-9,-2.0147E-8,3.9904E-11
-0.0010000,-0.0010000,-0.097000,-1.8080E-9,-2.2265E-9,-2.1303E-8,4.2648E-11
-2.7105E-20,-0.0010000,-0.097000,6.4588E-12,-1.9086E-9,-2.1721E-8,4.3703E-11
0.0010000,-0.0010000,-0.097000,2.0765E-9,-1.9060E-9,-2.1725E-8,4.2648E-11