% Model:              Sample_ExBprobe_E.mph
% Version:            COMSOL 6.3.0.290
% Date:               Mar 17 2026, 17:12
% Dimension:          3
% Nodes:              24321
% Expressions:        147
% Description:        x-coordinate, y-coordinate, z-coordinate, Electric field, x-component, Electric field, y-component, Electric field, z-component, Electric potential
% Length unit:        m
% x (m),y (m),z (m),es.Ex (V/m),es.Ey (V/m),es.Ez (V/m),V (V)
-0.0050000,-0.0050000,-0.10000,-0.0000,-0.0000,-0.0000,0.0000
-0.0040000,-0.0050000,-0.10000,-0.0000,-0.0000,-0.0000,0.0000
-0.0030000,-0.0050000,-0.10000,-0.0000,-0.0000,-0.0000,0.0000
-0.0020000,-0.0050000,-0.10000,-0.0000,-0.0000,-0.0000,0.0000
-0.0010000,-0.0050000,-0.10000,-0.0000,-0.0000,-0.0000,0.0000
-4.7434E-20,-0.0050000,-0.10000,-0.0000,-0.0000,-0.0000,0.0000
0.0010000,-0.0050000,-0.10000,-0.0000,-0.0000,-0.0000,0.0000
0.0020000,-0.0050000,-0.10000,-0.0000,-0.0000,-0.0000,0.0000
0.0030000,-0.0050000,-0.10000,-0.0000,-0.0000,-0.0000,0.0000
0.0040000,-0.0050000,-0.10000,-0.0000,-0.0000,-0.0000,0.0000
0.0050000,-0.0050000,-0.10000,-0.0000,-0.0000,-0.0000,0.0000
-0.0050000,-0.0040000,-0.10000,-0.0000,-0.0000,-0.0000,0.0000
-0.0040000,-0.0040000,-0.10000,-0.0000,-0.0000,-0.0000,0.0000
-0.0030000,-0.0040000,-0.10000,-0.0000,-0.0000,-0.0000,0.0000
-0.0020000,-0.0040000,-0.10000,-0.0000,-0.0000,-0.0000,0.0000
-0.0010000,-0.0040000,-0.10000,-0.0000,-0.0000,-0.0000,0.0000
1.8974E-19,-0.0040000,-0.10000,-0.0000,-0.0000,-0.0000,0.0000
0.0010000,-0.0040000,-0.10000,-0.0000,-0.0000,-0.0000,0.0000
0.0020000,-0.0040000,-0.10000,-0.0000,-0.0000,-0.0000,0.0000
0.0030000,-0.0040000,-0.10000,-0.0000,-0.0000,-0.0000,0.0000
0.0040000,-0.0040000,-0.10000,-0.0000,-0.0000,-0.0000,0.0000
0.0050000,-0.0040000,-0.10000,-0.0000,-0.0000,-0.0000,0.0000
-0.0050000,-0.0030000,-0.10000,-0.0000,-0.0000,-0.0000,0.0000
-0.0040000,-0.0030000,-0.10000,-0.0000,-0.0000,-0.0000,0.0000
-0.0030000,-0.0030000,-0.10000,-0.0000,-0.0000,-0.0000,0.0000
-0.0020000,-0.0030000,-0.10000,-0.0000,-0.0000,-0.0000,0.0000
-0.0010000,-0.0030000,-0.10000,-0.0000,-0.0000,-0.0000,0.0000
-1.5378E-20,-0.0030000,-0.10000,-0.0000,-0.0000,-0.0000,0.0000
0.0010000,-0.0030000,-0.10000,-0.0000,-0.0000,-0.0000,0.0000
0.0020000,-0.0030000,-0.10000,-0.0000,-0.0000,-0.0000,0.0000
0.0030000,-0.0030000,-0.10000,-0.0000,-0.0000,-0.0000,0.0000
0.0040000,-0.0030000,-0.10000,-0.0000,-0.0000,-0.0000,0.0000
0.0050000,-0.0030000,-0.10000,-0.0000,-0.0000,-0.0000,0.0000
-0.0050000,-0.0020000,-0.10000,-0.0000,-0.0000,-0.0000,0.0000
-0.0040000,-0.0020000,-0.10000,-0.0000,-0.0000,-0.0000,0.0000
-0.0030000,-0.0020000,-0.10000,-0.0000,-0.0000,-0.0000,0.0000
-0.0020000,-0.0020000,-0.10000,-0.0000,-0.0000,-0.0000,0.0000
-0.0010000,-0.0020000,-0.10000,-0.0000,-0.0000,-0.0000,0.0000
-6.7763E-21,-0.0020000,-0.10000,-0.0000,-0.0000,-0.0000,0.0000
0.0010000,-0.0020000,-0.10000,-0.0000,-0.0000,-0.0000,0.0000
0.0020000,-0.0020000,-0.10000,-0.0000,-0.0000,-0.0000,0.0000
0.0030000,-0.0020000,-0.10000,-0.0000,-0.0000,-0.0000,0.0000
0.0040000,-0.0020000,-0.10000,-0.0000,-0.0000,-0.0000,0.0000
0.0050000,-0.0020000,-0.10000,-0.0000,-0.0000,-0.0000,0.0000
-0.0050000,-0.0010000,-0.10000,-0.0000,-0.0000,-0.0000,0.0000
-0.0040000,-0.0010000,-0.10000,-0.0000,-0.0000,-0.0000,0.0000
-0.0030000,-0.0010000,-0.10000,-0.0000,-0.0000,-0.0000,0.0000
-0.0020000,-0.0010000,-0.10000,-0.0000,-0.0000,-0.0000,0.0000
-0.0010000,-0.0010000,-0.10000,-0.0000,-0.0000,-0.0000,0.0000
-1.4997E-19,-0.0010000,-0.10000,-0.0000,-0.0000,-0.0000,0.0000
0.0010000,-0.0010000,-0.10000,-0.0000,-0.0000,-0.0000,0.0000
0.0020000,-0.0010000,-0.10000,-0.0000,-0.0000,-0.0000,0.0000
0.0030000,-0.0010000,-0.10000,-0.0000,-0.0000,-0.0000,0.0000
0.0040000,-0.0010000,-0.10000,-0.0000,-0.0000,-0.0000,0.0000
0.0050000,-0.0010000,-0.10000,-0.0000,-0.0000,-0.0000,0.0000
-0.0050000,-1.6263E-19,-0.10000,-0.0000,-0.0000,-0.0000,0.0000
-0.0040000,-3.7587E-20,-0.10000,-0.0000,-0.0000,-0.0000,0.0000
-0.0030000,3.0708E-21,-0.10000,-0.0000,-0.0000,-0.0000,0.0000
-0.0020000,-2.0329E-20,-0.10000,-0.0000,-0.0000,-0.0000,0.0000
-0.0010000,-6.3426E-20,-0.10000,-0.0000,-0.0000,-0.0000,0.0000
2.7444E-19,4.7434E-19,-0.10000,3.9326E-10,8.8347E-10,-6.5588E-9,3.1127E-12
0.0010000,-1.6664E-19,-0.10000,6.2540E-9,-3.6939E-10,-5.4962E-9,-2.0321E-25
0.0020000,-5.4210E-20,-0.10000,-0.0000,-0.0000,-0.0000,0.0000
0.0030000,7.5560E-20,-0.10000,-0.0000,-0.0000,-0.0000,0.0000
0.0040000,-9.8050E-21,-0.10000,-0.0000,-0.0000,-0.0000,0.0000
0.0050000,-8.1315E-20,-0.10000,-0.0000,-0.0000,-0.0000,0.0000
-0.0050000,0.0010000,-0.10000,-0.0000,-0.0000,-0.0000,0.0000
-0.0040000,0.0010000,-0.10000,-0.0000,-0.0000,-0.0000,0.0000
-0.0030000,0.0010000,-0.10000,-0.0000,-0.0000,-0.0000,0.0000
-0.0020000,0.0010000,-0.10000,-0.0000,-0.0000,-0.0000,0.0000
-0.0010000,0.0010000,-0.10000,-0.0000,-0.0000,-0.0000,0.0000
1.8010E-19,0.0010000,-0.10000,-0.0000,-0.0000,-0.0000,0.0000
0.0010000,0.0010000,-0.10000,-0.0000,-0.0000,-0.0000,0.0000
0.0020000,0.0010000,-0.10000,-0.0000,-0.0000,-0.0000,0.0000
0.0030000,0.0010000,-0.10000,-0.0000,-0.0000,-0.0000,0.0000
0.0040000,0.0010000,-0.10000,-0.0000,-0.0000,-0.0000,0.0000
0.0050000,0.0010000,-0.10000,-0.0000,-0.0000,-0.0000,0.0000
-0.0050000,0.0020000,-0.10000,-0.0000,-0.0000,-0.0000,0.0000
-0.0040000,0.0020000,-0.10000,-0.0000,-0.0000,-0.0000,0.0000
-0.0030000,0.0020000,-0.10000,-0.0000,-0.0000,-0.0000,0.0000
-0.0020000,0.0020000,-0.10000,-0.0000,-0.0000,-0.0000,0.0000
-0.0010000,0.0020000,-0.10000,-0.0000,-0.0000,-0.0000,0.0000
-2.7105E-20,0.0020000,-0.10000,-0.0000,-0.0000,-0.0000,0.0000
0.0010000,0.0020000,-0.10000,-0.0000,-0.0000,-0.0000,0.0000
0.0020000,0.0020000,-0.10000,-0.0000,-0.0000,-0.0000,0.0000
0.0030000,0.0020000,-0.10000,-0.0000,-0.0000,-0.0000,0.0000
0.0040000,0.0020000,-0.10000,-0.0000,-0.0000,-0.0000,0.0000
0.0050000,0.0020000,-0.10000,-0.0000,-0.0000,-0.0000,0.0000
-0.0050000,0.0030000,-0.10000,-0.0000,-0.0000,-0.0000,0.0000
-0.0040000,0.0030000,-0.10000,-0.0000,-0.0000,-0.0000,0.0000
-0.0030000,0.0030000,-0.10000,-0.0000,-0.0000,-0.0000,0.0000
-0.0020000,0.0030000,-0.10000,-0.0000,-0.0000,-0.0000,0.0000
-0.0010000,0.0030000,-0.10000,-0.0000,-0.0000,-0.0000,0.0000
-2.7105E-20,0.0030000,-0.10000,-0.0000,-0.0000,-0.0000,0.0000
0.0010000,0.0030000,-0.10000,-0.0000,-0.0000,-0.0000,0.0000
0.0020000,0.0030000,-0.10000,-0.0000,-0.0000,-0.0000,0.0000
0.0030000,0.0030000,-0.10000,-0.0000,-0.0000,-0.0000,0.0000
0.0040000,0.0030000,-0.10000,-0.0000,-0.0000,-0.0000,0.0000
0.0050000,0.0030000,-0.10000,-0.0000,-0.0000,-0.0000,0.0000
-0.0050000,0.0040000,-0.10000,-0.0000,-0.0000,-0.0000,0.0000
-0.0040000,0.0040000,-0.10000,-0.0000,-0.0000,-0.0000,0.0000
-0.0030000,0.0040000,-0.10000,-0.0000,-0.0000,-0.0000,0.0000
-0.0020000,0.0040000,-0.10000,-0.0000,-0.0000,-0.0000,0.0000
-0.0010000,0.0040000,-0.10000,-0.0000,-0.0000,-0.0000,0.0000
7.5856E-20,0.0040000,-0.10000,-0.0000,-0.0000,-0.0000,0.0000
0.0010000,0.0040000,-0.10000,-0.0000,-0.0000,-0.0000,0.0000
0.0020000,0.0040000,-0.10000,-0.0000,-0.0000,-0.0000,0.0000
0.0030000,0.0040000,-0.10000,-0.0000,-0.0000,-0.0000,0.0000
0.0040000,0.0040000,-0.10000,-0.0000,-0.0000,-0.0000,0.0000
0.0050000,0.0040000,-0.10000,-0.0000,-0.0000,-0.0000,0.0000
-0.0050000,0.0050000,-0.10000,-0.0000,-0.0000,-0.0000,0.0000
-0.0040000,0.0050000,-0.10000,-0.0000,-0.0000,-0.0000,0.0000
-0.0030000,0.0050000,-0.10000,-0.0000,-0.0000,-0.0000,0.0000
-0.0020000,0.0050000,-0.10000,-0.0000,-0.0000,-0.0000,0.0000
-0.0010000,0.0050000,-0.10000,-0.0000,-0.0000,-0.0000,0.0000
2.7105E-19,0.0050000,-0.10000,-0.0000,-0.0000,-0.0000,0.0000
0.0010000,0.0050000,-0.10000,-0.0000,-0.0000,-0.0000,0.0000
0.0020000,0.0050000,-0.10000,-0.0000,-0.0000,-0.0000,0.0000
0.0030000,0.0050000,-0.10000,-0.0000,-0.0000,-0.0000,0.0000
0.0040000,0.0050000,-0.10000,-0.0000,-0.0000,-0.0000,0.0000
0.0050000,0.0050000,-0.10000,-0.0000,-0.0000,-0.0000,0.0000
-0.0050000,-0.0050000,-0.099000,-1.1691E-22,-7.9369E-23,-9.9700E-9,2.7672E-25
-0.0040000,-0.0050000,-0.099000,-8.2839E-23,-1.1958E-22,-1.2312E-8,3.4173E-25
-0.0030000,-0.0050000,-0.099000,-6.9044E-23,-1.2213E-22,-1.5187E-8,4.2152E-25
-0.0020000,-0.0050000,-0.099000,-4.7924E-23,-1.2675E-22,-1.7379E-8,4.8236E-25
-0.0010000,-0.0050000,-0.099000,-2.2690E-23,-1.3044E-22,-1.8739E-8,5.2012E-25
-4.8052E-20,-0.0050000,-0.099000,-2.2690E-23,-1.3044E-22,-1.9557E-8,5.4281E-25
0.0010000,-0.0050000,-0.099000,5.4122E-23,-1.2389E-22,-1.9394E-8,5.5200E-25
0.0020000,-0.0050000,-0.099000,5.1781E-23,-1.1834E-22,-1.7556E-8,4.9192E-25
0.0030000,-0.0050000,-0.099000,5.1788E-23,-1.2591E-22,-1.5719E-8,4.4145E-25
0.0040000,-0.0050000,-0.099000,9.0129E-23,-1.0013E-22,-1.2708E-8,3.4809E-25
0.0050000,-0.0050000,-0.099000,9.1187E-23,-1.0208E-22,-9.4667E-9,2.5920E-25
-0.0050000,-0.0040000,-0.099000,-1.1691E-22,-7.9369E-23,-1.2830E-8,3.5609E-25
-0.0040000,-0.0040000,-0.099000,-1.0456E-22,-9.4724E-23,-1.6190E-8,4.4936E-25
-0.0030000,-0.0040000,-0.099000,-9.2664E-23,-9.2667E-23,-1.9463E-8,5.4021E-25
-0.0020000,-0.0040000,-0.099000,-8.1997E-23,-9.6670E-23,-2.2451E-8,6.2314E-25
-0.0010000,-0.0040000,-0.099000,-3.6603E-23,-1.2246E-22,-2.3298E-8,6.4666E-25
-8.6221E-20,-0.0040000,-0.099000,1.1869E-23,-1.2604E-22,-2.4069E-8,6.6805E-25
0.0010000,-0.0040000,-0.099000,3.1420E-23,-1.2209E-22,-2.3295E-8,6.4657E-25
0.0020000,-0.0040000,-0.099000,5.8031E-23,-1.1394E-22,-2.1942E-8,6.0902E-25
0.0030000,-0.0040000,-0.099000,9.6584E-23,-9.2562E-23,-1.9784E-8,5.4913E-25
0.0040000,-0.0040000,-0.099000,8.9618E-23,-9.8625E-23,-1.6411E-8,4.4927E-25
0.0050000,-0.0040000,-0.099000,1.1218E-22,-9.0172E-23,-1.2913E-8,3.5841E-25
-0.0050000,-0.0030000,-0.099000,-1.2186E-22,-6.5435E-23,-1.5497E-8,4.3012E-25
-0.0040000,-0.0030000,-0.099000,-1.2186E-22,-6.5435E-23,-1.9887E-8,5.5198E-25
-0.0030000,-0.0030000,-0.099000,-9.1974E-23,-8.4835E-23,-2.2779E-8,6.3226E-25
-0.0020000,-0.0030000,-0.099000,-7.8669E-23,-8.7695E-23,-2.5827E-8,7.1684E-25
-0.0010000,-0.0030000,-0.099000,-4.9533E-23,-1.1519E-22,-2.8251E-8,7.8412E-25
0.0000,-0.0030000,-0.099000,-5.8389E-24,-1.4006E-22,-2.9210E-8,8.1073E-25
0.0010000,-0.0030000,-0.099000,3.0548E-23,-1.2530E-22,-2.7751E-8,7.7025E-25
0.0020000,-0.0030000,-0.099000,7.1346E-23,-1.0178E-22,-2.5726E-8,7.1404E-25
0.0030000,-0.0030000,-0.099000,9.6584E-23,-9.2562E-23,-2.3119E-8,6.4169E-25
0.0040000,-0.0030000,-0.099000,9.8105E-23,-7.9401E-23,-1.9586E-8,5.4361E-25
0.0050000,-0.0030000,-0.099000,1.2345E-22,-6.2796E-23,-1.5615E-8,4.2662E-25
-0.0050000,-0.0020000,-0.099000,-1.2557E-22,-6.3746E-23,-1.7151E-8,4.7603E-25
-0.0040000,-0.0020000,-0.099000,-1.2557E-22,-6.3746E-23,-2.1675E-8,6.0160E-25
-0.0030000,-0.0020000,-0.099000,-1.0190E-22,-7.3475E-23,-2.5755E-8,7.1484E-25
-0.0020000,-0.0020000,-0.099000,-1.1698E-22,-7.6002E-23,-3.0655E-8,8.5085E-25
-0.0010000,-0.0020000,-0.099000,-4.9022E-23,-1.1926E-22,-3.2537E-8,9.0307E-25
1.6941E-21,-0.0020000,-0.099000,-1.2606E-21,7.4077E-22,-3.4271E-8,6.5883E-25
0.0010000,-0.0020000,-0.099000,1.1073E-21,-3.5139E-22,-3.4013E-8,1.1706E-24
0.0020000,-0.0020000,-0.099000,8.1505E-23,-9.5669E-23,-3.0030E-8,8.3350E-25
0.0030000,-0.0020000,-0.099000,1.0483E-22,-8.3497E-23,-2.6089E-8,7.2410E-25
0.0040000,-0.0020000,-0.099000,1.0942E-22,-6.8798E-23,-2.2228E-8,6.1694E-25
0.0050000,-0.0020000,-0.099000,1.2564E-22,-6.2150E-23,-1.7854E-8,4.9554E-25
-0.0050000,-0.0010000,-0.099000,-1.3575E-22,-2.2043E-23,-1.8914E-8,5.2496E-25
-0.0040000,-0.0010000,-0.099000,-1.1918E-22,-2.5501E-23,-2.3406E-8,6.4964E-25
-0.0030000,-0.0010000,-0.099000,-1.2153E-22,-2.4513E-23,-2.7753E-8,7.7031E-25
-0.0020000,-0.0010000,-0.099000,-5.8714E-22,-2.9512E-22,-3.3218E-8,9.6134E-25
-0.0010000,-0.0010000,-0.099000,-6.4939E-9,-7.3969E-9,-2.1313E-8,9.1732E-12
3.7269E-20,-0.0010000,-0.099000,7.4971E-10,-5.2622E-9,-1.9856E-8,1.2763E-11
0.0010000,-0.0010000,-0.099000,7.7890E-9,-6.3558E-9,-2.1492E-8,9.2948E-12
0.0020000,-0.0010000,-0.099000,1.3230E-22,-6.3731E-23,-3.2757E-8,9.1122E-25
0.0030000,-0.0010000,-0.099000,1.1296E-22,-4.5905E-23,-2.8017E-8,7.7763E-25
0.0040000,-0.0010000,-0.099000,1.2144E-22,-2.1274E-23,-2.3539E-8,6.5333E-25
0.0050000,-0.0010000,-0.099000,1.3335E-22,-2.4881E-23,-1.8891E-8,5.2433E-25
-0.0050000,-1.6263E-19,-0.099000,-1.2355E-22,5.5360E-24,-1.9750E-8,5.4818E-25
-0.0040000,-6.8487E-21,-0.099000,-1.2139E-22,-8.8879E-24,-2.4022E-8,6.6675E-25
-0.0030000,-2.7105E-20,-0.099000,-1.5279E-22,-1.3187E-23,-2.9347E-8,8.1455E-25
-0.0020000,5.5505E-20,-0.099000,1.1347E-21,-9.1347E-22,-3.3049E-8,9.9188E-25
-0.0010000,-8.4247E-21,-0.099000,-5.7539E-9,-1.1742E-10,-2.0410E-8,1.2756E-11
2.7105E-20,2.7105E-20,-0.099000,8.5446E-11,3.7137E-11,-1.9249E-8,1.5599E-11
0.0010000,-1.3553E-20,-0.099000,5.5842E-9,-1.9144E-10,-2.0053E-8,1.2762E-11
0.0020000,-1.5407E-32,-0.099000,2.4404E-21,-2.3260E-21,-3.4904E-8,1.4943E-24
0.0030000,5.4210E-20,-0.099000,1.6746E-22,9.3573E-24,-2.8871E-8,8.0133E-25
0.0040000,-1.2197E-19,-0.099000,1.2336E-22,1.9035E-23,-2.4074E-8,6.6818E-25
0.0050000,-1.8129E-19,-0.099000,1.2967E-22,1.5421E-23,-1.9370E-8,5.3763E-25
-0.0050000,0.0010000,-0.099000,-1.2977E-22,4.4146E-23,-1.9347E-8,5.3697E-25
-0.0040000,0.0010000,-0.099000,-1.2249E-22,2.5190E-23,-2.3859E-8,6.6223E-25
-0.0030000,0.0010000,-0.099000,-1.3613E-22,2.9975E-23,-2.7763E-8,7.7059E-25
-0.0020000,0.0010000,-0.099000,-1.3613E-22,2.9975E-23,-3.2668E-8,9.0672E-25
-0.0010000,0.0010000,-0.099000,-7.4793E-9,5.4098E-9,-2.1307E-8,9.2020E-12
-1.3553E-19,0.0010000,-0.099000,-9.8957E-11,6.6260E-9,-2.0603E-8,1.2477E-11
0.0010000,0.0010000,-0.099000,7.6350E-9,6.3927E-9,-2.1333E-8,9.2360E-12
0.0020000,0.0010000,-0.099000,1.2887E-22,8.6510E-23,-3.2739E-8,9.0870E-25
0.0030000,0.0010000,-0.099000,1.2224E-22,3.6048E-23,-2.7743E-8,7.7003E-25
0.0040000,0.0010000,-0.099000,1.2224E-22,3.6048E-23,-2.3339E-8,6.4779E-25
0.0050000,0.0010000,-0.099000,1.3238E-22,1.9388E-23,-1.8736E-8,5.2002E-25
-0.0050000,0.0020000,-0.099000,-1.2977E-22,4.4146E-23,-1.7756E-8,4.9283E-25
-0.0040000,0.0020000,-0.099000,-1.0698E-22,5.3722E-23,-2.2046E-8,6.1189E-25
-0.0030000,0.0020000,-0.099000,-9.2853E-23,7.7369E-23,-2.5594E-8,7.1039E-25
-0.0020000,0.0020000,-0.099000,-1.2357E-22,1.0478E-22,-2.9789E-8,8.2682E-25
-0.0010000,0.0020000,-0.099000,-1.3369E-21,-1.1472E-21,-3.2421E-8,2.2535E-25
4.1909E-19,0.0020000,-0.099000,1.6916E-21,-1.4707E-22,-3.4480E-8,-1.3010E-24
0.0010000,0.0020000,-0.099000,6.4787E-23,1.3099E-22,-3.2384E-8,8.9883E-25
0.0020000,0.0020000,-0.099000,6.4787E-23,1.3099E-22,-3.0050E-8,8.3404E-25
0.0030000,0.0020000,-0.099000,1.0330E-22,6.7238E-23,-2.5861E-8,7.1780E-25
0.0040000,0.0020000,-0.099000,1.1643E-22,5.6665E-23,-2.1480E-8,5.9619E-25
0.0050000,0.0020000,-0.099000,1.1643E-22,5.6665E-23,-1.7285E-8,4.7976E-25
-0.0050000,0.0030000,-0.099000,-1.1318E-22,8.3956E-23,-1.5434E-8,4.2838E-25
-0.0040000,0.0030000,-0.099000,-9.3627E-23,1.0050E-22,-1.9552E-8,5.4268E-25
-0.0030000,0.0030000,-0.099000,-9.7197E-23,7.9278E-23,-2.2807E-8,6.3301E-25
-0.0020000,0.0030000,-0.099000,-8.0615E-23,8.5609E-23,-2.5722E-8,7.1392E-25
-0.0010000,0.0030000,-0.099000,-3.9380E-23,1.1884E-22,-2.7404E-8,7.6062E-25
6.9397E-20,0.0030000,-0.099000,-1.9507E-23,1.1945E-22,-2.8409E-8,7.8851E-25
0.0010000,0.0030000,-0.099000,5.8660E-23,1.1332E-22,-2.7643E-8,7.6724E-25
0.0020000,0.0030000,-0.099000,6.7206E-23,9.7072E-23,-2.5414E-8,7.0539E-25
0.0030000,0.0030000,-0.099000,8.1929E-23,9.3625E-23,-2.2552E-8,6.2595E-25
0.0040000,0.0030000,-0.099000,1.1679E-22,7.2890E-23,-1.8926E-8,5.2529E-25
0.0050000,0.0030000,-0.099000,1.1510E-22,7.2440E-23,-1.5182E-8,4.2139E-25
-0.0050000,0.0040000,-0.099000,-1.1318E-22,8.3956E-23,-1.2409E-8,3.4443E-25
-0.0040000,0.0040000,-0.099000,-9.0860E-23,9.8599E-23,-1.5950E-8,4.4270E-25
-0.0030000,0.0040000,-0.099000,-8.0114E-23,1.0390E-22,-1.9189E-8,5.3261E-25
-0.0020000,0.0040000,-0.099000,-4.9648E-23,1.3149E-22,-2.1752E-8,6.0375E-25
-0.0010000,0.0040000,-0.099000,-3.9376E-23,1.2031E-22,-2.3103E-8,6.4123E-25
1.8575E-20,0.0040000,-0.099000,-2.1126E-23,1.2372E-22,-2.4084E-8,6.6846E-25
0.0010000,0.0040000,-0.099000,5.6858E-23,1.0957E-22,-2.3570E-8,6.5420E-25
0.0020000,0.0040000,-0.099000,5.6858E-23,1.0957E-22,-2.1522E-8,5.9734E-25
0.0030000,0.0040000,-0.099000,7.2087E-23,1.1368E-22,-1.8959E-8,5.2622E-25
0.0040000,0.0040000,-0.099000,1.1679E-22,7.2890E-23,-1.6299E-8,4.5240E-25
0.0050000,0.0040000,-0.099000,1.1726E-22,8.5022E-23,-1.2554E-8,3.4844E-25
-0.0050000,0.0050000,-0.099000,-8.6380E-23,1.1305E-22,-9.3675E-9,2.6000E-25
-0.0040000,0.0050000,-0.099000,-8.6380E-23,1.1305E-22,-1.2480E-8,3.4638E-25
-0.0030000,0.0050000,-0.099000,-4.8303E-23,1.2727E-22,-1.5266E-8,4.2372E-25
-0.0020000,0.0050000,-0.099000,-4.9648E-23,1.3149E-22,-1.7015E-8,4.7226E-25
-0.0010000,0.0050000,-0.099000,-3.9376E-23,1.2031E-22,-1.8768E-8,5.2092E-25
-5.4210E-20,0.0050000,-0.099000,1.0951E-23,1.3395E-22,-1.8834E-8,5.2276E-25
0.0010000,0.0050000,-0.099000,1.0951E-23,1.3395E-22,-1.8440E-8,5.1181E-25
0.0020000,0.0050000,-0.099000,7.2087E-23,1.1368E-22,-1.7461E-8,4.8463E-25
0.0030000,0.0050000,-0.099000,5.8149E-23,1.2414E-22,-1.4995E-8,4.1619E-25
0.0040000,0.0050000,-0.099000,8.8106E-23,1.0987E-22,-1.2090E-8,3.3555E-25
0.0050000,0.0050000,-0.099000,1.1726E-22,8.5022E-23,-9.4907E-9,2.6342E-25
-0.0050000,-0.0050000,-0.098000,-3.9564E-9,-3.6343E-9,-9.9221E-9,9.5324E-12
-0.0040000,-0.0050000,-0.098000,-3.0684E-9,-4.4084E-9,-1.3542E-8,1.2945E-11
-0.0030000,-0.0050000,-0.098000,-2.7029E-9,-4.9293E-9,-1.6559E-8,1.5830E-11
-0.0020000,-0.0050000,-0.098000,-1.9517E-9,-4.2692E-9,-1.8867E-8,1.8157E-11
-0.0010000,-0.0050000,-0.098000,-6.6303E-10,-4.1425E-9,-2.0416E-8,1.9533E-11
-1.0842E-19,-0.0050000,-0.098000,-3.5594E-10,-5.0666E-9,-2.0482E-8,2.0042E-11
0.0010000,-0.0050000,-0.098000,1.0861E-9,-4.7102E-9,-2.0101E-8,1.9574E-11
0.0020000,-0.0050000,-0.098000,1.8977E-9,-4.4202E-9,-1.8605E-8,1.8115E-11
0.0030000,-0.0050000,-0.098000,2.4618E-9,-4.4324E-9,-1.6150E-8,1.5993E-11
0.0040000,-0.0050000,-0.098000,3.2409E-9,-3.7035E-9,-1.3550E-8,1.3129E-11
0.0050000,-0.0050000,-0.098000,3.6468E-9,-3.4779E-9,-9.9789E-9,9.7714E-12
-0.0050000,-0.0040000,-0.098000,-4.0249E-9,-3.2091E-9,-1.3311E-8,1.2864E-11
-0.0040000,-0.0040000,-0.098000,-3.8333E-9,-3.4594E-9,-1.7333E-8,1.6724E-11
-0.0030000,-0.0040000,-0.098000,-3.0646E-9,-3.6908E-9,-2.0590E-8,2.0042E-11
-0.0020000,-0.0040000,-0.098000,-2.0617E-9,-4.2771E-9,-2.2893E-8,2.2490E-11
-0.0010000,-0.0040000,-0.098000,-8.1793E-10,-4.6429E-9,-2.4536E-8,2.4064E-11
5.4210E-20,-0.0040000,-0.098000,2.4149E-10,-4.5585E-9,-2.5108E-8,2.4601E-11
0.0010000,-0.0040000,-0.098000,1.1320E-9,-4.3986E-9,-2.4692E-8,2.3993E-11
0.0020000,-0.0040000,-0.098000,2.4105E-9,-4.2121E-9,-2.3092E-8,2.2467E-11
0.0030000,-0.0040000,-0.098000,2.8079E-9,-3.7281E-9,-2.0322E-8,2.0078E-11
0.0040000,-0.0040000,-0.098000,3.3287E-9,-3.6001E-9,-1.7392E-8,1.6874E-11
0.0050000,-0.0040000,-0.098000,4.0377E-9,-3.2572E-9,-1.3388E-8,1.3180E-11
-0.0050000,-0.0030000,-0.098000,-4.4307E-9,-2.2851E-9,-1.6326E-8,1.5763E-11
-0.0040000,-0.0030000,-0.098000,-3.9007E-9,-2.7571E-9,-2.0604E-8,2.0043E-11
-0.0030000,-0.0030000,-0.098000,-3.3386E-9,-3.3387E-9,-2.3929E-8,2.3365E-11
-0.0020000,-0.0030000,-0.098000,-2.6864E-9,-3.6174E-9,-2.6907E-8,2.6362E-11
-0.0010000,-0.0030000,-0.098000,-1.0566E-9,-3.7681E-9,-2.8502E-8,2.8223E-11
1.3553E-20,-0.0030000,-0.098000,2.4940E-10,-4.4547E-9,-2.9180E-8,2.8983E-11
0.0010000,-0.0030000,-0.098000,1.1815E-9,-4.0053E-9,-2.8528E-8,2.8343E-11
0.0020000,-0.0030000,-0.098000,2.5705E-9,-3.6669E-9,-2.6977E-8,2.6351E-11
0.0030000,-0.0030000,-0.098000,3.2544E-9,-3.3250E-9,-2.4052E-8,2.3586E-11
0.0040000,-0.0030000,-0.098000,3.6957E-9,-2.4360E-9,-2.0462E-8,2.0042E-11
0.0050000,-0.0030000,-0.098000,4.3857E-9,-2.2991E-9,-1.6341E-8,1.6001E-11
-0.0050000,-0.0020000,-0.098000,-4.5002E-9,-2.2579E-9,-1.8730E-8,1.7970E-11
-0.0040000,-0.0020000,-0.098000,-4.2684E-9,-2.3608E-9,-2.3159E-8,2.2458E-11
-0.0030000,-0.0020000,-0.098000,-3.5065E-9,-2.9026E-9,-2.7211E-8,2.6338E-11
-0.0020000,-0.0020000,-0.098000,-2.9515E-9,-2.9219E-9,-2.9579E-8,2.9732E-11
-0.0010000,-0.0020000,-0.098000,-5.0796E-9,-3.6585E-9,-2.9937E-8,3.2422E-11
2.7105E-20,-0.0020000,-0.098000,1.5604E-10,-4.5541E-9,-3.0813E-8,3.3388E-11
0.0010000,-0.0020000,-0.098000,1.9225E-9,-4.2352E-9,-3.0329E-8,3.2301E-11
0.0020000,-0.0020000,-0.098000,2.8841E-9,-2.9331E-9,-2.9568E-8,2.9810E-11
0.0030000,-0.0020000,-0.098000,3.7037E-9,-2.2346E-9,-2.6104E-8,2.6352E-11
0.0040000,-0.0020000,-0.098000,3.9378E-9,-2.0307E-9,-2.2775E-8,2.2450E-11
0.0050000,-0.0020000,-0.098000,4.5575E-9,-1.7935E-9,-1.8432E-8,1.8191E-11
-0.0050000,-0.0010000,-0.098000,-4.9879E-9,-8.4714E-10,-1.9954E-8,1.9325E-11
-0.0040000,-0.0010000,-0.098000,-4.8176E-9,-8.3128E-10,-2.4869E-8,2.4086E-11
-0.0030000,-0.0010000,-0.098000,-3.9753E-9,-1.1945E-9,-2.8532E-8,2.8317E-11
-0.0020000,-0.0010000,-0.098000,-4.0274E-9,-3.6129E-9,-3.0265E-8,3.2318E-11
-0.0010000,-0.0010000,-0.098000,-3.2377E-9,-3.3881E-9,-2.9751E-8,3.6310E-11
5.2516E-20,-0.0010000,-0.098000,5.8495E-10,-3.1524E-9,-3.0367E-8,3.7843E-11
0.0010000,-0.0010000,-0.098000,3.3584E-9,-3.3899E-9,-2.9726E-8,3.6149E-11
0.0020000,-0.0010000,-0.098000,4.3036E-9,-1.7751E-9,-3.0362E-8,3.2185E-11
0.0030000,-0.0010000,-0.098000,3.9466E-9,-1.3297E-9,-2.7691E-8,2.8116E-11
0.0040000,-0.0010000,-0.098000,4.3752E-9,-7.6649E-10,-2.4460E-8,2.4000E-11
0.0050000,-0.0010000,-0.098000,4.8244E-9,-9.1880E-10,-2.0024E-8,1.9472E-11
-0.0050000,1.2197E-19,-0.098000,-4.7313E-9,-8.6676E-11,-2.0499E-8,1.9981E-11
-0.0040000,1.3553E-19,-0.098000,-4.3526E-9,1.2930E-10,-2.4922E-8,2.4540E-11
-0.0030000,-8.1315E-20,-0.098000,-4.1307E-9,2.9578E-10,-2.9005E-8,2.8770E-11
-0.0020000,-1.3553E-20,-0.098000,-5.0141E-9,-6.0211E-11,-3.0599E-8,3.3437E-11
-0.0010000,-2.7105E-20,-0.098000,-3.4207E-9,9.3682E-10,-2.9425E-8,3.7719E-11
2.6893E-20,1.2176E-19,-0.098000,-4.4688E-10,2.1768E-11,-2.8606E-8,3.9677E-11
0.0010000,0.0000,-0.098000,3.4138E-9,-3.2467E-10,-2.9010E-8,3.8024E-11
0.0020000,2.0329E-20,-0.098000,5.6298E-9,-1.1642E-9,-2.9196E-8,3.3580E-11
0.0030000,5.4210E-20,-0.098000,4.5102E-9,-1.2378E-10,-2.8876E-8,2.8826E-11
0.0040000,3.3881E-20,-0.098000,4.3784E-9,1.4835E-10,-2.4890E-8,2.4515E-11
0.0050000,-3.3881E-20,-0.098000,4.6291E-9,2.9289E-10,-2.0363E-8,1.9917E-11
-0.0050000,0.0010000,-0.098000,-4.6842E-9,1.0677E-9,-1.9636E-8,1.9675E-11
-0.0040000,0.0010000,-0.098000,-4.1160E-9,1.3425E-9,-2.3909E-8,2.3870E-11
-0.0030000,0.0010000,-0.098000,-3.8649E-9,1.2783E-9,-2.8280E-8,2.7868E-11
-0.0020000,0.0010000,-0.098000,-4.6439E-9,2.2156E-9,-3.0797E-8,3.1934E-11
-0.0010000,0.0010000,-0.098000,-3.5799E-9,3.4057E-9,-2.9097E-8,3.5961E-11
0.0000,0.0010000,-0.098000,-5.2363E-10,3.8562E-9,-2.8694E-8,3.7965E-11
0.0010000,0.0010000,-0.098000,3.2445E-9,3.7771E-9,-2.9582E-8,3.6495E-11
0.0020000,0.0010000,-0.098000,3.4523E-9,1.6173E-9,-2.9025E-8,3.2434E-11
0.0030000,0.0010000,-0.098000,4.3656E-9,1.5983E-9,-2.8389E-8,2.8158E-11
0.0040000,0.0010000,-0.098000,4.2386E-9,1.0164E-9,-2.4400E-8,2.3893E-11
0.0050000,0.0010000,-0.098000,4.8661E-9,6.9826E-10,-1.9943E-8,1.9321E-11
-0.0050000,0.0020000,-0.098000,-4.6781E-9,1.6031E-9,-1.8523E-8,1.7989E-11
-0.0040000,0.0020000,-0.098000,-3.9590E-9,2.0909E-9,-2.2606E-8,2.2308E-11
-0.0030000,0.0020000,-0.098000,-3.4928E-9,2.3576E-9,-2.6227E-8,2.5954E-11
-0.0020000,0.0020000,-0.098000,-3.0870E-9,2.8029E-9,-2.9421E-8,2.9293E-11
-0.0010000,0.0020000,-0.098000,-2.2096E-9,4.5988E-9,-3.1102E-8,3.1975E-11
0.0000,0.0020000,-0.098000,-2.0438E-10,3.7745E-9,-2.9176E-8,3.3087E-11
0.0010000,0.0020000,-0.098000,2.3301E-9,4.9935E-9,-3.1096E-8,3.2240E-11
0.0020000,0.0020000,-0.098000,3.1130E-9,3.1894E-9,-2.9590E-8,2.9559E-11
0.0030000,0.0020000,-0.098000,3.4587E-9,2.4532E-9,-2.6689E-8,2.6202E-11
0.0040000,0.0020000,-0.098000,4.5201E-9,2.1055E-9,-2.3003E-8,2.2229E-11
0.0050000,0.0020000,-0.098000,4.1430E-9,1.9772E-9,-1.8616E-8,1.7983E-11
-0.0050000,0.0030000,-0.098000,-4.3534E-9,2.6834E-9,-1.6159E-8,1.5840E-11
-0.0040000,0.0030000,-0.098000,-3.6180E-9,2.8689E-9,-2.0151E-8,1.9839E-11
-0.0030000,0.0030000,-0.098000,-2.8429E-9,3.1671E-9,-2.3634E-8,2.3242E-11
-0.0020000,0.0030000,-0.098000,-2.4238E-9,3.6073E-9,-2.6372E-8,2.6080E-11
-0.0010000,0.0030000,-0.098000,-1.3622E-9,3.9495E-9,-2.7974E-8,2.7784E-11
-5.4210E-20,0.0030000,-0.098000,-4.1360E-10,3.9911E-9,-2.8783E-8,2.8451E-11
0.0010000,0.0030000,-0.098000,1.5330E-9,3.8786E-9,-2.8323E-8,2.7843E-11
0.0020000,0.0030000,-0.098000,2.1134E-9,4.0829E-9,-2.6270E-8,2.5900E-11
0.0030000,0.0030000,-0.098000,2.6848E-9,3.3642E-9,-2.3964E-8,2.3150E-11
0.0040000,0.0030000,-0.098000,4.1765E-9,2.6980E-9,-2.0466E-8,1.9719E-11
0.0050000,0.0030000,-0.098000,4.1742E-9,2.6132E-9,-1.6136E-8,1.5524E-11
-0.0050000,0.0040000,-0.098000,-4.0734E-9,3.1470E-9,-1.3243E-8,1.2860E-11
-0.0040000,0.0040000,-0.098000,-3.2736E-9,3.5524E-9,-1.6970E-8,1.6460E-11
-0.0030000,0.0040000,-0.098000,-2.8864E-9,3.7435E-9,-2.0099E-8,1.9644E-11
-0.0020000,0.0040000,-0.098000,-1.9193E-9,4.1141E-9,-2.2644E-8,2.2273E-11
-0.0010000,0.0040000,-0.098000,-7.6115E-10,4.4576E-9,-2.3825E-8,2.3574E-11
-1.3553E-20,0.0040000,-0.098000,-1.4099E-10,4.4577E-9,-2.4525E-8,2.4225E-11
0.0010000,0.0040000,-0.098000,1.0732E-9,4.2801E-9,-2.4083E-8,2.3764E-11
0.0020000,0.0040000,-0.098000,2.4863E-9,3.6621E-9,-2.2947E-8,2.1920E-11
0.0030000,0.0040000,-0.098000,2.5406E-9,3.7148E-9,-2.0168E-8,1.9663E-11
0.0040000,0.0040000,-0.098000,3.4934E-9,3.7171E-9,-1.7099E-8,1.6648E-11
0.0050000,0.0040000,-0.098000,4.1685E-9,3.0962E-9,-1.3129E-8,1.2824E-11
-0.0050000,0.0050000,-0.098000,-3.7493E-9,3.7493E-9,-9.6824E-9,9.5330E-12
-0.0040000,0.0050000,-0.098000,-3.1596E-9,3.9642E-9,-1.3156E-8,1.2780E-11
-0.0030000,0.0050000,-0.098000,-2.5101E-9,4.5704E-9,-1.6143E-8,1.5778E-11
-0.0020000,0.0050000,-0.098000,-1.7888E-9,4.7375E-9,-1.8368E-8,1.7692E-11
-0.0010000,0.0050000,-0.098000,-1.0440E-9,4.5408E-9,-1.9685E-8,1.9277E-11
-2.7105E-20,0.0050000,-0.098000,2.6612E-10,4.7776E-9,-2.0209E-8,1.9565E-11
0.0010000,0.0050000,-0.098000,5.2392E-10,4.7760E-9,-1.9804E-8,1.9206E-11
0.0020000,0.0050000,-0.098000,2.4142E-9,4.4848E-9,-1.8309E-8,1.7809E-11
0.0030000,0.0050000,-0.098000,2.1492E-9,4.5199E-9,-1.6080E-8,1.5528E-11
0.0040000,0.0050000,-0.098000,3.6229E-9,4.0121E-9,-1.3177E-8,1.2658E-11
0.0050000,0.0050000,-0.098000,3.4075E-9,3.7637E-9,-9.7350E-9,9.3939E-12
-0.0050000,-0.0050000,-0.097000,-7.7111E-9,-7.6602E-9,-1.0683E-8,1.9835E-11
-0.0040000,-0.0050000,-0.097000,-6.4637E-9,-8.0810E-9,-1.4515E-8,2.6973E-11
-0.0030000,-0.0050000,-0.097000,-5.3756E-9,-8.6934E-9,-1.7591E-8,3.2940E-11
-0.0020000,-0.0050000,-0.097000,-3.7623E-9,-9.3949E-9,-2.0102E-8,3.7519E-11
-0.0010000,-0.0050000,-0.097000,-1.5905E-9,-9.6755E-9,-2.1629E-8,4.0181E-11
0.0000,-0.0050000,-0.097000,-2.5558E-10,-9.8579E-9,-2.2332E-8,4.1057E-11
0.0010000,-0.0050000,-0.097000,1.7701E-9,-9.5645E-9,-2.2223E-8,4.0494E-11
0.0020000,-0.0050000,-0.097000,3.8461E-9,-9.2326E-9,-2.0367E-8,3.7452E-11
0.0030000,-0.0050000,-0.097000,5.2784E-9,-8.6985E-9,-1.7865E-8,3.2833E-11
0.0040000,-0.0050000,-0.097000,6.0696E-9,-8.4522E-9,-1.4645E-8,2.7023E-11
0.0050000,-0.0050000,-0.097000,7.6281E-9,-7.4370E-9,-1.0712E-8,1.9949E-11
-0.0050000,-0.0040000,-0.097000,-8.4399E-9,-6.9249E-9,-1.4947E-8,2.6833E-11
-0.0040000,-0.0040000,-0.097000,-7.2555E-9,-7.1771E-9,-1.8521E-8,3.4654E-11
-0.0030000,-0.0040000,-0.097000,-5.6991E-9,-7.7154E-9,-2.1651E-8,4.1162E-11
-0.0020000,-0.0040000,-0.097000,-4.5175E-9,-8.1069E-9,-2.5238E-8,4.6271E-11
-0.0010000,-0.0040000,-0.097000,-1.9117E-9,-8.6958E-9,-2.6789E-8,4.9465E-11
-2.4395E-19,-0.0040000,-0.097000,-4.6477E-11,-9.0207E-9,-2.7381E-8,5.0444E-11
0.0010000,-0.0040000,-0.097000,2.1971E-9,-8.6240E-9,-2.7061E-8,4.9588E-11
0.0020000,-0.0040000,-0.097000,4.2733E-9,-8.1509E-9,-2.5144E-8,4.6305E-11
0.0030000,-0.0040000,-0.097000,5.8472E-9,-7.8740E-9,-2.2580E-8,4.1079E-11
0.0040000,-0.0040000,-0.097000,7.1226E-9,-7.2206E-9,-1.8899E-8,3.4767E-11
0.0050000,-0.0040000,-0.097000,8.3388E-9,-6.5498E-9,-1.4491E-8,2.6847E-11
-0.0050000,-0.0030000,-0.097000,-8.9546E-9,-5.1305E-9,-1.7855E-8,3.2861E-11
-0.0040000,-0.0030000,-0.097000,-7.7151E-9,-5.7722E-9,-2.1720E-8,4.1205E-11
-0.0030000,-0.0030000,-0.097000,-6.4643E-9,-6.5430E-9,-2.6070E-8,4.8319E-11
-0.0020000,-0.0030000,-0.097000,-4.8399E-9,-7.2072E-9,-2.9122E-8,5.3923E-11
-0.0010000,-0.0030000,-0.097000,-1.9536E-9,-7.1119E-9,-3.0448E-8,5.7711E-11
6.7763E-21,-0.0030000,-0.097000,2.5059E-10,-7.2877E-9,-3.1300E-8,5.8759E-11
0.0010000,-0.0030000,-0.097000,2.4035E-9,-7.0697E-9,-3.0560E-8,5.7373E-11
0.0020000,-0.0030000,-0.097000,4.7544E-9,-7.5186E-9,-2.8088E-8,5.3914E-11
0.0030000,-0.0030000,-0.097000,6.1524E-9,-6.5816E-9,-2.6244E-8,4.8485E-11
0.0040000,-0.0030000,-0.097000,8.0437E-9,-5.6726E-9,-2.2545E-8,4.1419E-11
0.0050000,-0.0030000,-0.097000,8.7880E-9,-5.2240E-9,-1.7977E-8,3.2924E-11
-0.0050000,-0.0020000,-0.097000,-9.7833E-9,-4.3333E-9,-2.0152E-8,3.7507E-11
-0.0040000,-0.0020000,-0.097000,-7.8479E-9,-3.8521E-9,-2.3781E-8,4.6051E-11
-0.0030000,-0.0020000,-0.097000,-7.6375E-9,-4.7392E-9,-2.8701E-8,5.3693E-11
-0.0020000,-0.0020000,-0.097000,-4.8837E-9,-5.4078E-9,-3.1154E-8,5.9759E-11
-0.0010000,-0.0020000,-0.097000,-3.2464E-9,-5.8829E-9,-3.2883E-8,6.3857E-11
8.1315E-20,-0.0020000,-0.097000,3.5886E-10,-5.9128E-9,-3.3909E-8,6.5205E-11
0.0010000,-0.0020000,-0.097000,2.5346E-9,-5.2695E-9,-3.3385E-8,6.3755E-11
0.0020000,-0.0020000,-0.097000,5.0146E-9,-4.9982E-9,-3.1438E-8,6.0082E-11
0.0030000,-0.0020000,-0.097000,7.4391E-9,-4.4631E-9,-2.9192E-8,5.3885E-11
0.0040000,-0.0020000,-0.097000,8.4793E-9,-4.0262E-9,-2.5154E-8,4.6059E-11
0.0050000,-0.0020000,-0.097000,8.9603E-9,-3.7682E-9,-2.0668E-8,3.7271E-11
-0.0050000,-0.0010000,-0.097000,-9.5233E-9,-1.6949E-9,-2.1956E-8,4.0280E-11
-0.0040000,-0.0010000,-0.097000,-8.2208E-9,-2.1410E-9,-2.6168E-8,4.9047E-11
-0.0030000,-0.0010000,-0.097000,-7.3240E-9,-2.6407E-9,-3.0293E-8,5.7383E-11
-0.0020000,-0.0010000,-0.097000,-6.1367E-9,-2.9129E-9,-3.2236E-8,6.3846E-11
-0.0010000,-0.0010000,-0.097000,-2.8928E-9,-3.5623E-9,-3.4085E-8,6.8236E-11
-2.7105E-20,-0.0010000,-0.097000,1.0334E-11,-3.0538E-9,-3.4753E-8,6.9924E-11
0.0010000,-0.0010000,-0.097000,3.3224E-9,-3.0496E-9,-3.4760E-8,6.8237E-11
0.0020000,-0.0010000,-0.097000,5.9217E-9,-2.6169E-9,-3.3440E-8,6.3830E-11