% Model:              Sample_ExBprobe_E.mph
% Version:            COMSOL 6.3.0.290
% Date:               Mar 17 2026, 17:12
% Dimension:          3
% Nodes:              24321
% Expressions:        147
% Description:        x-coordinate, y-coordinate, z-coordinate, Electric field, x-component, Electric field, y-component, Electric field, z-component, Electric potential
% Length unit:        m
% x (m),y (m),z (m),es.Ex (V/m),es.Ey (V/m),es.Ez (V/m),V (V)
-0.0050000,-0.0050000,-0.10000,-0.0000,-0.0000,-0.0000,0.0000
-0.0040000,-0.0050000,-0.10000,-0.0000,-0.0000,-0.0000,0.0000
-0.0030000,-0.0050000,-0.10000,-0.0000,-0.0000,-0.0000,0.0000
-0.0020000,-0.0050000,-0.10000,-0.0000,-0.0000,-0.0000,0.0000
-0.0010000,-0.0050000,-0.10000,-0.0000,-0.0000,-0.0000,0.0000
-4.7434E-20,-0.0050000,-0.10000,-0.0000,-0.0000,-0.0000,0.0000
0.0010000,-0.0050000,-0.10000,-0.0000,-0.0000,-0.0000,0.0000
0.0020000,-0.0050000,-0.10000,-0.0000,-0.0000,-0.0000,0.0000
0.0030000,-0.0050000,-0.10000,-0.0000,-0.0000,-0.0000,0.0000
0.0040000,-0.0050000,-0.10000,-0.0000,-0.0000,-0.0000,0.0000
0.0050000,-0.0050000,-0.10000,-0.0000,-0.0000,-0.0000,0.0000
-0.0050000,-0.0040000,-0.10000,-0.0000,-0.0000,-0.0000,0.0000
-0.0040000,-0.0040000,-0.10000,-0.0000,-0.0000,-0.0000,0.0000
-0.0030000,-0.0040000,-0.10000,-0.0000,-0.0000,-0.0000,0.0000
-0.0020000,-0.0040000,-0.10000,-0.0000,-0.0000,-0.0000,0.0000
-0.0010000,-0.0040000,-0.10000,-0.0000,-0.0000,-0.0000,0.0000
1.8974E-19,-0.0040000,-0.10000,-0.0000,-0.0000,-0.0000,0.0000
0.0010000,-0.0040000,-0.10000,-0.0000,-0.0000,-0.0000,0.0000
0.0020000,-0.0040000,-0.10000,-0.0000,-0.0000,-0.0000,0.0000
0.0030000,-0.0040000,-0.10000,-0.0000,-0.0000,-0.0000,0.0000
0.0040000,-0.0040000,-0.10000,-0.0000,-0.0000,-0.0000,0.0000
0.0050000,-0.0040000,-0.10000,-0.0000,-0.0000,-0.0000,0.0000
-0.0050000,-0.0030000,-0.10000,-0.0000,-0.0000,-0.0000,0.0000
-0.0040000,-0.0030000,-0.10000,-0.0000,-0.0000,-0.0000,0.0000
-0.0030000,-0.0030000,-0.10000,-0.0000,-0.0000,-0.0000,0.0000
-0.0020000,-0.0030000,-0.10000,-0.0000,-0.0000,-0.0000,0.0000
-0.0010000,-0.0030000,-0.10000,-0.0000,-0.0000,-0.0000,0.0000
-1.5378E-20,-0.0030000,-0.10000,-0.0000,-0.0000,-0.0000,0.0000
0.0010000,-0.0030000,-0.10000,-0.0000,-0.0000,-0.0000,0.0000
0.0020000,-0.0030000,-0.10000,-0.0000,-0.0000,-0.0000,0.0000
0.0030000,-0.0030000,-0.10000,-0.0000,-0.0000,-0.0000,0.0000
0.0040000,-0.0030000,-0.10000,-0.0000,-0.0000,-0.0000,0.0000
0.0050000,-0.0030000,-0.10000,-0.0000,-0.0000,-0.0000,0.0000
-0.0050000,-0.0020000,-0.10000,-0.0000,-0.0000,-0.0000,0.0000
-0.0040000,-0.0020000,-0.10000,-0.0000,-0.0000,-0.0000,0.0000
-0.0030000,-0.0020000,-0.10000,-0.0000,-0.0000,-0.0000,0.0000
-0.0020000,-0.0020000,-0.10000,-0.0000,-0.0000,-0.0000,0.0000
-0.0010000,-0.0020000,-0.10000,-0.0000,-0.0000,-0.0000,0.0000
-6.7763E-21,-0.0020000,-0.10000,-0.0000,-0.0000,-0.0000,0.0000
0.0010000,-0.0020000,-0.10000,-0.0000,-0.0000,-0.0000,0.0000
0.0020000,-0.0020000,-0.10000,-0.0000,-0.0000,-0.0000,0.0000
0.0030000,-0.0020000,-0.10000,-0.0000,-0.0000,-0.0000,0.0000
0.0040000,-0.0020000,-0.10000,-0.0000,-0.0000,-0.0000,0.0000
0.0050000,-0.0020000,-0.10000,-0.0000,-0.0000,-0.0000,0.0000
-0.0050000,-0.0010000,-0.10000,-0.0000,-0.0000,-0.0000,0.0000
-0.0040000,-0.0010000,-0.10000,-0.0000,-0.0000,-0.0000,0.0000
-0.0030000,-0.0010000,-0.10000,-0.0000,-0.0000,-0.0000,0.0000
-0.0020000,-0.0010000,-0.10000,-0.0000,-0.0000,-0.0000,0.0000
-0.0010000,-0.0010000,-0.10000,-0.0000,-0.0000,-0.0000,0.0000
-1.4997E-19,-0.0010000,-0.10000,-0.0000,-0.0000,-0.0000,0.0000
0.0010000,-0.0010000,-0.10000,-0.0000,-0.0000,-0.0000,0.0000
0.0020000,-0.0010000,-0.10000,-0.0000,-0.0000,-0.0000,0.0000
0.0030000,-0.0010000,-0.10000,-0.0000,-0.0000,-0.0000,0.0000
0.0040000,-0.0010000,-0.10000,-0.0000,-0.0000,-0.0000,0.0000
0.0050000,-0.0010000,-0.10000,-0.0000,-0.0000,-0.0000,0.0000
-0.0050000,-1.6263E-19,-0.10000,-0.0000,-0.0000,-0.0000,0.0000
-0.0040000,-3.7587E-20,-0.10000,-0.0000,-0.0000,-0.0000,0.0000
-0.0030000,3.0708E-21,-0.10000,-0.0000,-0.0000,-0.0000,0.0000
-0.0020000,-2.0329E-20,-0.10000,-0.0000,-0.0000,-0.0000,0.0000
-0.0010000,-6.3426E-20,-0.10000,-0.0000,-0.0000,-0.0000,0.0000
2.7444E-19,4.7434E-19,-0.10000,9.3399E-10,2.0982E-9,-1.5577E-8,7.3927E-12
0.0010000,-1.6664E-19,-0.10000,1.4853E-8,-8.7731E-10,-1.3053E-8,-4.8263E-25
0.0020000,-5.4210E-20,-0.10000,-0.0000,-0.0000,-0.0000,0.0000
0.0030000,7.5560E-20,-0.10000,-0.0000,-0.0000,-0.0000,0.0000
0.0040000,-9.8050E-21,-0.10000,-0.0000,-0.0000,-0.0000,0.0000
0.0050000,-8.1315E-20,-0.10000,-0.0000,-0.0000,-0.0000,0.0000
-0.0050000,0.0010000,-0.10000,-0.0000,-0.0000,-0.0000,0.0000
-0.0040000,0.0010000,-0.10000,-0.0000,-0.0000,-0.0000,0.0000
-0.0030000,0.0010000,-0.10000,-0.0000,-0.0000,-0.0000,0.0000
-0.0020000,0.0010000,-0.10000,-0.0000,-0.0000,-0.0000,0.0000
-0.0010000,0.0010000,-0.10000,-0.0000,-0.0000,-0.0000,0.0000
1.8010E-19,0.0010000,-0.10000,-0.0000,-0.0000,-0.0000,0.0000
0.0010000,0.0010000,-0.10000,-0.0000,-0.0000,-0.0000,0.0000
0.0020000,0.0010000,-0.10000,-0.0000,-0.0000,-0.0000,0.0000
0.0030000,0.0010000,-0.10000,-0.0000,-0.0000,-0.0000,0.0000
0.0040000,0.0010000,-0.10000,-0.0000,-0.0000,-0.0000,0.0000
0.0050000,0.0010000,-0.10000,-0.0000,-0.0000,-0.0000,0.0000
-0.0050000,0.0020000,-0.10000,-0.0000,-0.0000,-0.0000,0.0000
-0.0040000,0.0020000,-0.10000,-0.0000,-0.0000,-0.0000,0.0000
-0.0030000,0.0020000,-0.10000,-0.0000,-0.0000,-0.0000,0.0000
-0.0020000,0.0020000,-0.10000,-0.0000,-0.0000,-0.0000,0.0000
-0.0010000,0.0020000,-0.10000,-0.0000,-0.0000,-0.0000,0.0000
-2.7105E-20,0.0020000,-0.10000,-0.0000,-0.0000,-0.0000,0.0000
0.0010000,0.0020000,-0.10000,-0.0000,-0.0000,-0.0000,0.0000
0.0020000,0.0020000,-0.10000,-0.0000,-0.0000,-0.0000,0.0000
0.0030000,0.0020000,-0.10000,-0.0000,-0.0000,-0.0000,0.0000
0.0040000,0.0020000,-0.10000,-0.0000,-0.0000,-0.0000,0.0000
0.0050000,0.0020000,-0.10000,-0.0000,-0.0000,-0.0000,0.0000
-0.0050000,0.0030000,-0.10000,-0.0000,-0.0000,-0.0000,0.0000
-0.0040000,0.0030000,-0.10000,-0.0000,-0.0000,-0.0000,0.0000
-0.0030000,0.0030000,-0.10000,-0.0000,-0.0000,-0.0000,0.0000
-0.0020000,0.0030000,-0.10000,-0.0000,-0.0000,-0.0000,0.0000
-0.0010000,0.0030000,-0.10000,-0.0000,-0.0000,-0.0000,0.0000
-2.7105E-20,0.0030000,-0.10000,-0.0000,-0.0000,-0.0000,0.0000
0.0010000,0.0030000,-0.10000,-0.0000,-0.0000,-0.0000,0.0000
0.0020000,0.0030000,-0.10000,-0.0000,-0.0000,-0.0000,0.0000
0.0030000,0.0030000,-0.10000,-0.0000,-0.0000,-0.0000,0.0000
0.0040000,0.0030000,-0.10000,-0.0000,-0.0000,-0.0000,0.0000
0.0050000,0.0030000,-0.10000,-0.0000,-0.0000,-0.0000,0.0000
-0.0050000,0.0040000,-0.10000,-0.0000,-0.0000,-0.0000,0.0000
-0.0040000,0.0040000,-0.10000,-0.0000,-0.0000,-0.0000,0.0000
-0.0030000,0.0040000,-0.10000,-0.0000,-0.0000,-0.0000,0.0000
-0.0020000,0.0040000,-0.10000,-0.0000,-0.0000,-0.0000,0.0000
-0.0010000,0.0040000,-0.10000,-0.0000,-0.0000,-0.0000,0.0000
7.5856E-20,0.0040000,-0.10000,-0.0000,-0.0000,-0.0000,0.0000
0.0010000,0.0040000,-0.10000,-0.0000,-0.0000,-0.0000,0.0000
0.0020000,0.0040000,-0.10000,-0.0000,-0.0000,-0.0000,0.0000
0.0030000,0.0040000,-0.10000,-0.0000,-0.0000,-0.0000,0.0000
0.0040000,0.0040000,-0.10000,-0.0000,-0.0000,-0.0000,0.0000
0.0050000,0.0040000,-0.10000,-0.0000,-0.0000,-0.0000,0.0000
-0.0050000,0.0050000,-0.10000,-0.0000,-0.0000,-0.0000,0.0000
-0.0040000,0.0050000,-0.10000,-0.0000,-0.0000,-0.0000,0.0000
-0.0030000,0.0050000,-0.10000,-0.0000,-0.0000,-0.0000,0.0000
-0.0020000,0.0050000,-0.10000,-0.0000,-0.0000,-0.0000,0.0000
-0.0010000,0.0050000,-0.10000,-0.0000,-0.0000,-0.0000,0.0000
2.7105E-19,0.0050000,-0.10000,-0.0000,-0.0000,-0.0000,0.0000
0.0010000,0.0050000,-0.10000,-0.0000,-0.0000,-0.0000,0.0000
0.0020000,0.0050000,-0.10000,-0.0000,-0.0000,-0.0000,0.0000
0.0030000,0.0050000,-0.10000,-0.0000,-0.0000,-0.0000,0.0000
0.0040000,0.0050000,-0.10000,-0.0000,-0.0000,-0.0000,0.0000
0.0050000,0.0050000,-0.10000,-0.0000,-0.0000,-0.0000,0.0000
-0.0050000,-0.0050000,-0.099000,-2.7765E-22,-1.8850E-22,-2.3679E-8,6.5722E-25
-0.0040000,-0.0050000,-0.099000,-1.9674E-22,-2.8401E-22,-2.9241E-8,8.1161E-25
-0.0030000,-0.0050000,-0.099000,-1.6398E-22,-2.9007E-22,-3.6069E-8,1.0011E-24
-0.0020000,-0.0050000,-0.099000,-1.1382E-22,-3.0103E-22,-4.1274E-8,1.1456E-24
-0.0010000,-0.0050000,-0.099000,-5.3890E-23,-3.0980E-22,-4.4506E-8,1.2353E-24
-4.8052E-20,-0.0050000,-0.099000,-5.3890E-23,-3.0980E-22,-4.6447E-8,1.2892E-24
0.0010000,-0.0050000,-0.099000,1.2854E-22,-2.9425E-22,-4.6060E-8,1.3110E-24
0.0020000,-0.0050000,-0.099000,1.2298E-22,-2.8107E-22,-4.1696E-8,1.1683E-24
0.0030000,-0.0050000,-0.099000,1.2300E-22,-2.9903E-22,-3.7331E-8,1.0484E-24
0.0040000,-0.0050000,-0.099000,2.1406E-22,-2.3782E-22,-3.0180E-8,8.2673E-25
0.0050000,-0.0050000,-0.099000,2.1657E-22,-2.4243E-22,-2.2483E-8,6.1559E-25
-0.0050000,-0.0040000,-0.099000,-2.7765E-22,-1.8850E-22,-3.0470E-8,8.4572E-25
-0.0040000,-0.0040000,-0.099000,-2.4832E-22,-2.2497E-22,-3.8451E-8,1.0672E-24
-0.0030000,-0.0040000,-0.099000,-2.2008E-22,-2.2008E-22,-4.6225E-8,1.2830E-24
-0.0020000,-0.0040000,-0.099000,-1.9474E-22,-2.2959E-22,-5.3321E-8,1.4799E-24
-0.0010000,-0.0040000,-0.099000,-8.6932E-23,-2.9085E-22,-5.5333E-8,1.5358E-24
-8.6221E-20,-0.0040000,-0.099000,2.8189E-23,-2.9934E-22,-5.7164E-8,1.5866E-24
0.0010000,-0.0040000,-0.099000,7.4622E-23,-2.8996E-22,-5.5326E-8,1.5356E-24
0.0020000,-0.0040000,-0.099000,1.3782E-22,-2.7062E-22,-5.2113E-8,1.4464E-24
0.0030000,-0.0040000,-0.099000,2.2939E-22,-2.1983E-22,-4.6988E-8,1.3042E-24
0.0040000,-0.0040000,-0.099000,2.1284E-22,-2.3423E-22,-3.8976E-8,1.0670E-24
0.0050000,-0.0040000,-0.099000,2.6643E-22,-2.1416E-22,-3.0669E-8,8.5122E-25
-0.0050000,-0.0030000,-0.099000,-2.8942E-22,-1.5541E-22,-3.6804E-8,1.0215E-24
-0.0040000,-0.0030000,-0.099000,-2.8942E-22,-1.5541E-22,-4.7232E-8,1.3109E-24
-0.0030000,-0.0030000,-0.099000,-2.1844E-22,-2.0148E-22,-5.4101E-8,1.5016E-24
-0.0020000,-0.0030000,-0.099000,-1.8684E-22,-2.0828E-22,-6.1338E-8,1.7025E-24
-0.0010000,-0.0030000,-0.099000,-1.1764E-22,-2.7359E-22,-6.7096E-8,1.8623E-24
0.0000,-0.0030000,-0.099000,-1.3867E-23,-3.3265E-22,-6.9373E-8,1.9255E-24
0.0010000,-0.0030000,-0.099000,7.2552E-23,-2.9758E-22,-6.5909E-8,1.8293E-24
0.0020000,-0.0030000,-0.099000,1.6945E-22,-2.4172E-22,-6.1099E-8,1.6958E-24
0.0030000,-0.0030000,-0.099000,2.2939E-22,-2.1983E-22,-5.4908E-8,1.5240E-24
0.0040000,-0.0030000,-0.099000,2.3300E-22,-1.8858E-22,-4.6516E-8,1.2911E-24
0.0050000,-0.0030000,-0.099000,2.9319E-22,-1.4914E-22,-3.7087E-8,1.0132E-24
-0.0050000,-0.0020000,-0.099000,-2.9823E-22,-1.5140E-22,-4.0733E-8,1.1306E-24
-0.0040000,-0.0020000,-0.099000,-2.9823E-22,-1.5140E-22,-5.1478E-8,1.4288E-24
-0.0030000,-0.0020000,-0.099000,-2.4202E-22,-1.7450E-22,-6.1168E-8,1.6977E-24
-0.0020000,-0.0020000,-0.099000,-2.7784E-22,-1.8050E-22,-7.2806E-8,2.0208E-24
-0.0010000,-0.0020000,-0.099000,-1.1643E-22,-2.8323E-22,-7.7274E-8,2.1448E-24
1.6941E-21,-0.0020000,-0.099000,-2.9940E-21,1.7593E-21,-8.1393E-8,1.5647E-24
0.0010000,-0.0020000,-0.099000,2.6298E-21,-8.3454E-22,-8.0781E-8,2.7803E-24
0.0020000,-0.0020000,-0.099000,1.9358E-22,-2.2721E-22,-7.1321E-8,1.9796E-24
0.0030000,-0.0020000,-0.099000,2.4897E-22,-1.9831E-22,-6.1960E-8,1.7197E-24
0.0040000,-0.0020000,-0.099000,2.5986E-22,-1.6340E-22,-5.2790E-8,1.4652E-24
0.0050000,-0.0020000,-0.099000,2.9839E-22,-1.4761E-22,-4.2403E-8,1.1769E-24
-0.0050000,-0.0010000,-0.099000,-3.2241E-22,-5.2353E-23,-4.4920E-8,1.2468E-24
-0.0040000,-0.0010000,-0.099000,-2.8306E-22,-6.0565E-23,-5.5589E-8,1.5429E-24
-0.0030000,-0.0010000,-0.099000,-2.8863E-22,-5.8218E-23,-6.5914E-8,1.8295E-24
-0.0020000,-0.0010000,-0.099000,-1.3945E-21,-7.0092E-22,-7.8892E-8,2.2832E-24
-0.0010000,-0.0010000,-0.099000,-1.5423E-8,-1.7568E-8,-5.0617E-8,2.1786E-11
3.7269E-20,-0.0010000,-0.099000,1.7806E-9,-1.2498E-8,-4.7159E-8,3.0312E-11
0.0010000,-0.0010000,-0.099000,1.8499E-8,-1.5095E-8,-5.1043E-8,2.2075E-11
0.0020000,-0.0010000,-0.099000,3.1422E-22,-1.5136E-22,-7.7797E-8,2.1642E-24
0.0030000,-0.0010000,-0.099000,2.6828E-22,-1.0902E-22,-6.6541E-8,1.8469E-24
0.0040000,-0.0010000,-0.099000,2.8841E-22,-5.0527E-23,-5.5905E-8,1.5517E-24
0.0050000,-0.0010000,-0.099000,3.1670E-22,-5.9093E-23,-4.4866E-8,1.2453E-24
-0.0050000,-1.6263E-19,-0.099000,-2.9343E-22,1.3148E-23,-4.6907E-8,1.3019E-24
-0.0040000,-6.8487E-21,-0.099000,-2.8830E-22,-2.1109E-23,-5.7053E-8,1.5835E-24
-0.0030000,-2.7105E-20,-0.099000,-3.6287E-22,-3.1319E-23,-6.9700E-8,1.9346E-24
-0.0020000,5.5505E-20,-0.099000,2.6948E-21,-2.1695E-21,-7.8492E-8,2.3557E-24
-0.0010000,-8.4247E-21,-0.099000,-1.3666E-8,-2.7888E-10,-4.8474E-8,3.0295E-11
2.7105E-20,2.7105E-20,-0.099000,2.0293E-10,8.8200E-11,-4.5716E-8,3.7047E-11
0.0010000,-1.3553E-20,-0.099000,1.3262E-8,-4.5466E-10,-4.7626E-8,3.0309E-11
0.0020000,-1.5407E-32,-0.099000,5.7959E-21,-5.5243E-21,-8.2898E-8,3.5490E-24
0.0030000,5.4210E-20,-0.099000,3.9771E-22,2.2224E-23,-6.8569E-8,1.9032E-24
0.0040000,-1.2197E-19,-0.099000,2.9297E-22,4.5208E-23,-5.7175E-8,1.5869E-24
0.0050000,-1.8129E-19,-0.099000,3.0795E-22,3.6624E-23,-4.6004E-8,1.2769E-24
-0.0050000,0.0010000,-0.099000,-3.0820E-22,1.0485E-22,-4.5948E-8,1.2753E-24
-0.0040000,0.0010000,-0.099000,-2.9092E-22,5.9826E-23,-5.6666E-8,1.5728E-24
-0.0030000,0.0010000,-0.099000,-3.2330E-22,7.1192E-23,-6.5938E-8,1.8301E-24
-0.0020000,0.0010000,-0.099000,-3.2330E-22,7.1192E-23,-7.7586E-8,2.1534E-24
-0.0010000,0.0010000,-0.099000,-1.7763E-8,1.2848E-8,-5.0605E-8,2.1855E-11
-1.3553E-19,0.0010000,-0.099000,-2.3502E-10,1.5737E-8,-4.8931E-8,2.9633E-11
0.0010000,0.0010000,-0.099000,1.8133E-8,1.5183E-8,-5.0665E-8,2.1936E-11
0.0020000,0.0010000,-0.099000,3.0606E-22,2.0546E-22,-7.7756E-8,2.1582E-24
0.0030000,0.0010000,-0.099000,2.9031E-22,8.5614E-23,-6.5890E-8,1.8288E-24
0.0040000,0.0010000,-0.099000,2.9031E-22,8.5614E-23,-5.5431E-8,1.5385E-24
0.0050000,0.0010000,-0.099000,3.1441E-22,4.6047E-23,-4.4497E-8,1.2350E-24
-0.0050000,0.0020000,-0.099000,-3.0820E-22,1.0485E-22,-4.2171E-8,1.1705E-24
-0.0040000,0.0020000,-0.099000,-2.5407E-22,1.2759E-22,-5.2359E-8,1.4532E-24
-0.0030000,0.0020000,-0.099000,-2.2053E-22,1.8375E-22,-6.0787E-8,1.6872E-24
-0.0020000,0.0020000,-0.099000,-2.9349E-22,2.4886E-22,-7.0749E-8,1.9637E-24
-0.0010000,0.0020000,-0.099000,-3.1751E-21,-2.7245E-21,-7.7000E-8,5.3520E-25
4.1909E-19,0.0020000,-0.099000,4.0177E-21,-3.4930E-22,-8.1890E-8,-3.0899E-24
0.0010000,0.0020000,-0.099000,1.5387E-22,3.1109E-22,-7.6911E-8,2.1347E-24
0.0020000,0.0020000,-0.099000,1.5387E-22,3.1109E-22,-7.1368E-8,1.9808E-24
0.0030000,0.0020000,-0.099000,2.4534E-22,1.5969E-22,-6.1421E-8,1.7048E-24
0.0040000,0.0020000,-0.099000,2.7652E-22,1.3458E-22,-5.1015E-8,1.4159E-24
0.0050000,0.0020000,-0.099000,2.7652E-22,1.3458E-22,-4.1052E-8,1.1394E-24
-0.0050000,0.0030000,-0.099000,-2.6881E-22,1.9939E-22,-3.6656E-8,1.0174E-24
-0.0040000,0.0030000,-0.099000,-2.2236E-22,2.3870E-22,-4.6436E-8,1.2889E-24
-0.0030000,0.0030000,-0.099000,-2.3084E-22,1.8829E-22,-5.4166E-8,1.5034E-24
-0.0020000,0.0030000,-0.099000,-1.9146E-22,2.0332E-22,-6.1089E-8,1.6956E-24
-0.0010000,0.0030000,-0.099000,-9.3528E-23,2.8225E-22,-6.5085E-8,1.8065E-24
6.9397E-20,0.0030000,-0.099000,-4.6330E-23,2.8369E-22,-6.7472E-8,1.8727E-24
0.0010000,0.0030000,-0.099000,1.3932E-22,2.6914E-22,-6.5651E-8,1.8222E-24
0.0020000,0.0030000,-0.099000,1.5962E-22,2.3054E-22,-6.0359E-8,1.6753E-24
0.0030000,0.0030000,-0.099000,1.9458E-22,2.2236E-22,-5.3562E-8,1.4866E-24
0.0040000,0.0030000,-0.099000,2.7739E-22,1.7311E-22,-4.4948E-8,1.2476E-24
0.0050000,0.0030000,-0.099000,2.7335E-22,1.7205E-22,-3.6058E-8,1.0008E-24
-0.0050000,0.0040000,-0.099000,-2.6881E-22,1.9939E-22,-2.9472E-8,8.1801E-25
-0.0040000,0.0040000,-0.099000,-2.1579E-22,2.3417E-22,-3.7881E-8,1.0514E-24
-0.0030000,0.0040000,-0.099000,-1.9027E-22,2.4677E-22,-4.5575E-8,1.2650E-24
-0.0020000,0.0040000,-0.099000,-1.1791E-22,3.1229E-22,-5.1662E-8,1.4339E-24
-0.0010000,0.0040000,-0.099000,-9.3518E-23,2.8574E-22,-5.4869E-8,1.5229E-24
1.8575E-20,0.0040000,-0.099000,-5.0174E-23,2.9384E-22,-5.7199E-8,1.5876E-24
0.0010000,0.0040000,-0.099000,1.3504E-22,2.6023E-22,-5.5979E-8,1.5537E-24
0.0020000,0.0040000,-0.099000,1.3504E-22,2.6023E-22,-5.1114E-8,1.4187E-24
0.0030000,0.0040000,-0.099000,1.7121E-22,2.6998E-22,-4.5027E-8,1.2498E-24
0.0040000,0.0040000,-0.099000,2.7739E-22,1.7311E-22,-3.8711E-8,1.0744E-24
0.0050000,0.0040000,-0.099000,2.7849E-22,2.0193E-22,-2.9816E-8,8.2755E-25
-0.0050000,0.0050000,-0.099000,-2.0515E-22,2.6849E-22,-2.2248E-8,6.1750E-25
-0.0040000,0.0050000,-0.099000,-2.0515E-22,2.6849E-22,-2.9639E-8,8.2265E-25
-0.0030000,0.0050000,-0.099000,-1.1472E-22,3.0228E-22,-3.6257E-8,1.0063E-24
-0.0020000,0.0050000,-0.099000,-1.1791E-22,3.1229E-22,-4.0411E-8,1.1216E-24
-0.0010000,0.0050000,-0.099000,-9.3518E-23,2.8574E-22,-4.4574E-8,1.2372E-24
-5.4210E-20,0.0050000,-0.099000,2.6009E-23,3.1812E-22,-4.4732E-8,1.2416E-24
0.0010000,0.0050000,-0.099000,2.6009E-23,3.1812E-22,-4.3794E-8,1.2155E-24
0.0020000,0.0050000,-0.099000,1.7121E-22,2.6998E-22,-4.1469E-8,1.1510E-24
0.0030000,0.0050000,-0.099000,1.3810E-22,2.9484E-22,-3.5613E-8,9.8846E-25
0.0040000,0.0050000,-0.099000,2.0925E-22,2.6094E-22,-2.8713E-8,7.9693E-25
0.0050000,0.0050000,-0.099000,2.7849E-22,2.0193E-22,-2.2540E-8,6.2562E-25
-0.0050000,-0.0050000,-0.098000,-9.3965E-9,-8.6313E-9,-2.3565E-8,2.2640E-11
-0.0040000,-0.0050000,-0.098000,-7.2874E-9,-1.0470E-8,-3.2162E-8,3.0743E-11
-0.0030000,-0.0050000,-0.098000,-6.4194E-9,-1.1707E-8,-3.9329E-8,3.7596E-11
-0.0020000,-0.0050000,-0.098000,-4.6353E-9,-1.0139E-8,-4.4810E-8,4.3123E-11
-0.0010000,-0.0050000,-0.098000,-1.5747E-9,-9.8383E-9,-4.8487E-8,4.6391E-11
-1.0842E-19,-0.0050000,-0.098000,-8.4536E-10,-1.2033E-8,-4.8644E-8,4.7601E-11
0.0010000,-0.0050000,-0.098000,2.5795E-9,-1.1187E-8,-4.7741E-8,4.6488E-11
0.0020000,-0.0050000,-0.098000,4.5069E-9,-1.0498E-8,-4.4186E-8,4.3024E-11
0.0030000,-0.0050000,-0.098000,5.8468E-9,-1.0527E-8,-3.8357E-8,3.7983E-11
0.0040000,-0.0050000,-0.098000,7.6970E-9,-8.7958E-9,-3.2180E-8,3.1180E-11
0.0050000,-0.0050000,-0.098000,8.6611E-9,-8.2599E-9,-2.3700E-8,2.3207E-11
-0.0050000,-0.0040000,-0.098000,-9.5591E-9,-7.6216E-9,-3.1614E-8,3.0552E-11
-0.0040000,-0.0040000,-0.098000,-9.1041E-9,-8.2160E-9,-4.1165E-8,3.9719E-11
-0.0030000,-0.0040000,-0.098000,-7.2785E-9,-8.7657E-9,-4.8900E-8,4.7599E-11
-0.0020000,-0.0040000,-0.098000,-4.8966E-9,-1.0158E-8,-5.4371E-8,5.3413E-11
-0.0010000,-0.0040000,-0.098000,-1.9426E-9,-1.1027E-8,-5.8274E-8,5.7153E-11
5.4210E-20,-0.0040000,-0.098000,5.7355E-10,-1.0826E-8,-5.9630E-8,5.8426E-11
0.0010000,-0.0040000,-0.098000,2.6885E-9,-1.0447E-8,-5.8642E-8,5.6984E-11
0.0020000,-0.0040000,-0.098000,5.7248E-9,-1.0004E-8,-5.4845E-8,5.3358E-11
0.0030000,-0.0040000,-0.098000,6.6687E-9,-8.8542E-9,-4.8266E-8,4.7685E-11
0.0040000,-0.0040000,-0.098000,7.9058E-9,-8.5503E-9,-4.1306E-8,4.0076E-11
0.0050000,-0.0040000,-0.098000,9.5896E-9,-7.7360E-9,-3.1797E-8,3.1303E-11
-0.0050000,-0.0030000,-0.098000,-1.0523E-8,-5.4271E-9,-3.8774E-8,3.7437E-11
-0.0040000,-0.0030000,-0.098000,-9.2641E-9,-6.5482E-9,-4.8936E-8,4.7603E-11
-0.0030000,-0.0030000,-0.098000,-7.9291E-9,-7.9294E-9,-5.6832E-8,5.5493E-11
-0.0020000,-0.0030000,-0.098000,-6.3802E-9,-8.5912E-9,-6.3904E-8,6.2609E-11
-0.0010000,-0.0030000,-0.098000,-2.5094E-9,-8.9491E-9,-6.7693E-8,6.7030E-11
1.3553E-20,-0.0030000,-0.098000,5.9233E-10,-1.0580E-8,-6.9303E-8,6.8834E-11
0.0010000,-0.0030000,-0.098000,2.8060E-9,-9.5125E-9,-6.7754E-8,6.7315E-11
0.0020000,-0.0030000,-0.098000,6.1049E-9,-8.7088E-9,-6.4070E-8,6.2584E-11
0.0030000,-0.0030000,-0.098000,7.7292E-9,-7.8969E-9,-5.7123E-8,5.6018E-11
0.0040000,-0.0030000,-0.098000,8.7774E-9,-5.7855E-9,-4.8597E-8,4.7599E-11
0.0050000,-0.0030000,-0.098000,1.0416E-8,-5.4604E-9,-3.8811E-8,3.8002E-11
-0.0050000,-0.0020000,-0.098000,-1.0688E-8,-5.3624E-9,-4.4483E-8,4.2679E-11
-0.0040000,-0.0020000,-0.098000,-1.0137E-8,-5.6068E-9,-5.5002E-8,5.3339E-11
-0.0030000,-0.0020000,-0.098000,-8.3279E-9,-6.8936E-9,-6.4627E-8,6.2553E-11
-0.0020000,-0.0020000,-0.098000,-7.0099E-9,-6.9396E-9,-7.0250E-8,7.0614E-11
-0.0010000,-0.0020000,-0.098000,-1.2064E-8,-8.6891E-9,-7.1101E-8,7.7003E-11
2.7105E-20,-0.0020000,-0.098000,3.7061E-10,-1.0816E-8,-7.3180E-8,7.9297E-11
0.0010000,-0.0020000,-0.098000,4.5660E-9,-1.0059E-8,-7.2032E-8,7.6714E-11
0.0020000,-0.0020000,-0.098000,6.8499E-9,-6.9662E-9,-7.0223E-8,7.0800E-11
0.0030000,-0.0020000,-0.098000,8.7963E-9,-5.3071E-9,-6.1996E-8,6.2587E-11
0.0040000,-0.0020000,-0.098000,9.3522E-9,-4.8229E-9,-5.4092E-8,5.3319E-11
0.0050000,-0.0020000,-0.098000,1.0824E-8,-4.2597E-9,-4.3776E-8,4.3204E-11
-0.0050000,-0.0010000,-0.098000,-1.1846E-8,-2.0120E-9,-4.7390E-8,4.5898E-11
-0.0040000,-0.0010000,-0.098000,-1.1442E-8,-1.9743E-9,-5.9064E-8,5.7204E-11
-0.0030000,-0.0010000,-0.098000,-9.4414E-9,-2.8370E-9,-6.7762E-8,6.7253E-11
-0.0020000,-0.0010000,-0.098000,-9.5651E-9,-8.5806E-9,-7.1878E-8,7.6756E-11
-0.0010000,-0.0010000,-0.098000,-7.6896E-9,-8.0468E-9,-7.0658E-8,8.6237E-11
5.2516E-20,-0.0010000,-0.098000,1.3893E-9,-7.4870E-9,-7.2121E-8,8.9877E-11
0.0010000,-0.0010000,-0.098000,7.9762E-9,-8.0510E-9,-7.0600E-8,8.5853E-11
0.0020000,-0.0010000,-0.098000,1.0221E-8,-4.2158E-9,-7.2109E-8,7.6440E-11
0.0030000,-0.0010000,-0.098000,9.3733E-9,-3.1581E-9,-6.5766E-8,6.6775E-11
0.0040000,-0.0010000,-0.098000,1.0391E-8,-1.8204E-9,-5.8093E-8,5.6999E-11
0.0050000,-0.0010000,-0.098000,1.1458E-8,-2.1822E-9,-4.7558E-8,4.6247E-11
-0.0050000,1.2197E-19,-0.098000,-1.1237E-8,-2.0586E-10,-4.8685E-8,4.7455E-11
-0.0040000,1.3553E-19,-0.098000,-1.0338E-8,3.0710E-10,-5.9191E-8,5.8283E-11
-0.0030000,-8.1315E-20,-0.098000,-9.8105E-9,7.0247E-10,-6.8887E-8,6.8329E-11
-0.0020000,-1.3553E-20,-0.098000,-1.1908E-8,-1.4300E-10,-7.2673E-8,7.9413E-11
-0.0010000,-2.7105E-20,-0.098000,-8.1242E-9,2.2249E-9,-6.9885E-8,8.9583E-11
2.6893E-20,1.2176E-19,-0.098000,-1.0614E-9,5.1698E-11,-6.7939E-8,9.4233E-11
0.0010000,0.0000,-0.098000,8.1077E-9,-7.7108E-10,-6.8898E-8,9.0308E-11
0.0020000,2.0329E-20,-0.098000,1.3371E-8,-2.7649E-9,-6.9341E-8,7.9752E-11
0.0030000,5.4210E-20,-0.098000,1.0712E-8,-2.9397E-10,-6.8581E-8,6.8462E-11
0.0040000,3.3881E-20,-0.098000,1.0399E-8,3.5232E-10,-5.9115E-8,5.8223E-11
0.0050000,-3.3881E-20,-0.098000,1.0994E-8,6.9562E-10,-4.8362E-8,4.7302E-11
-0.0050000,0.0010000,-0.098000,-1.1125E-8,2.5358E-9,-4.6636E-8,4.6728E-11
-0.0040000,0.0010000,-0.098000,-9.7755E-9,3.1885E-9,-5.6783E-8,5.6690E-11
-0.0030000,0.0010000,-0.098000,-9.1792E-9,3.0359E-9,-6.7165E-8,6.6186E-11
-0.0020000,0.0010000,-0.098000,-1.1029E-8,5.2620E-9,-7.3142E-8,7.5844E-11
-0.0010000,0.0010000,-0.098000,-8.5022E-9,8.0886E-9,-6.9106E-8,8.5408E-11
0.0000,0.0010000,-0.098000,-1.2436E-9,9.1584E-9,-6.8148E-8,9.0168E-11
0.0010000,0.0010000,-0.098000,7.7058E-9,8.9706E-9,-7.0257E-8,8.6675E-11
0.0020000,0.0010000,-0.098000,8.1991E-9,3.8410E-9,-6.8934E-8,7.7030E-11
0.0030000,0.0010000,-0.098000,1.0368E-8,3.7959E-9,-6.7423E-8,6.6874E-11
0.0040000,0.0010000,-0.098000,1.0067E-8,2.4140E-9,-5.7951E-8,5.6745E-11
0.0050000,0.0010000,-0.098000,1.1557E-8,1.6584E-9,-4.7364E-8,4.5888E-11
-0.0050000,0.0020000,-0.098000,-1.1111E-8,3.8073E-9,-4.3993E-8,4.2724E-11
-0.0040000,0.0020000,-0.098000,-9.4027E-9,4.9658E-9,-5.3689E-8,5.2980E-11
-0.0030000,0.0020000,-0.098000,-8.2954E-9,5.5993E-9,-6.2289E-8,6.1640E-11
-0.0020000,0.0020000,-0.098000,-7.3315E-9,6.6569E-9,-6.9875E-8,6.9570E-11
-0.0010000,0.0020000,-0.098000,-5.2478E-9,1.0922E-8,-7.3867E-8,7.5941E-11
0.0000,0.0020000,-0.098000,-4.8540E-10,8.9645E-9,-6.9294E-8,7.8583E-11
0.0010000,0.0020000,-0.098000,5.5339E-9,1.1860E-8,-7.3852E-8,7.6571E-11
0.0020000,0.0020000,-0.098000,7.3934E-9,7.5748E-9,-7.0277E-8,7.0202E-11
0.0030000,0.0020000,-0.098000,8.2145E-9,5.8263E-9,-6.3387E-8,6.2230E-11
0.0040000,0.0020000,-0.098000,1.0735E-8,5.0005E-9,-5.4633E-8,5.2794E-11
0.0050000,0.0020000,-0.098000,9.8397E-9,4.6958E-9,-4.4214E-8,4.2711E-11
-0.0050000,0.0030000,-0.098000,-1.0339E-8,6.3730E-9,-3.8379E-8,3.7621E-11
-0.0040000,0.0030000,-0.098000,-8.5927E-9,6.8137E-9,-4.7859E-8,4.7118E-11
-0.0030000,0.0030000,-0.098000,-6.7520E-9,7.5218E-9,-5.6131E-8,5.5199E-11
-0.0020000,0.0030000,-0.098000,-5.7564E-9,8.5672E-9,-6.2633E-8,6.1940E-11
-0.0010000,0.0030000,-0.098000,-3.2353E-9,9.3801E-9,-6.6437E-8,6.5986E-11
-5.4210E-20,0.0030000,-0.098000,-9.8230E-10,9.4789E-9,-6.8359E-8,6.7571E-11
0.0010000,0.0030000,-0.098000,3.6409E-9,9.2116E-9,-6.7268E-8,6.6128E-11
0.0020000,0.0030000,-0.098000,5.0194E-9,9.6969E-9,-6.2392E-8,6.1512E-11
0.0030000,0.0030000,-0.098000,6.3765E-9,7.9899E-9,-5.6915E-8,5.4981E-11
0.0040000,0.0030000,-0.098000,9.9192E-9,6.4079E-9,-4.8608E-8,4.6833E-11
0.0050000,0.0030000,-0.098000,9.9138E-9,6.2063E-9,-3.8322E-8,3.6868E-11
-0.0050000,0.0040000,-0.098000,-9.6743E-9,7.4740E-9,-3.1453E-8,3.0542E-11
-0.0040000,0.0040000,-0.098000,-7.7747E-9,8.4369E-9,-4.0303E-8,3.9092E-11
-0.0030000,0.0040000,-0.098000,-6.8552E-9,8.8907E-9,-4.7734E-8,4.6654E-11
-0.0020000,0.0040000,-0.098000,-4.5583E-9,9.7711E-9,-5.3779E-8,5.2898E-11
-0.0010000,0.0040000,-0.098000,-1.8077E-9,1.0587E-8,-5.6584E-8,5.5987E-11
-1.3553E-20,0.0040000,-0.098000,-3.3485E-10,1.0587E-8,-5.8246E-8,5.7534E-11
0.0010000,0.0040000,-0.098000,2.5488E-9,1.0165E-8,-5.7197E-8,5.6439E-11
0.0020000,0.0040000,-0.098000,5.9050E-9,8.6974E-9,-5.4498E-8,5.2060E-11
0.0030000,0.0040000,-0.098000,6.0339E-9,8.8227E-9,-4.7899E-8,4.6700E-11
0.0040000,0.0040000,-0.098000,8.2967E-9,8.8282E-9,-4.0609E-8,3.9538E-11
0.0050000,0.0040000,-0.098000,9.9001E-9,7.3536E-9,-3.1182E-8,3.0457E-11
-0.0050000,0.0050000,-0.098000,-8.9047E-9,8.9046E-9,-2.2996E-8,2.2641E-11
-0.0040000,0.0050000,-0.098000,-7.5040E-9,9.4149E-9,-3.1246E-8,3.0352E-11
-0.0030000,0.0050000,-0.098000,-5.9615E-9,1.0855E-8,-3.8339E-8,3.7473E-11
-0.0020000,0.0050000,-0.098000,-4.2483E-9,1.1252E-8,-4.3625E-8,4.2018E-11
-0.0010000,0.0050000,-0.098000,-2.4796E-9,1.0784E-8,-4.6752E-8,4.5783E-11
-2.7105E-20,0.0050000,-0.098000,6.3204E-10,1.1347E-8,-4.7997E-8,4.6467E-11
0.0010000,0.0050000,-0.098000,1.2443E-9,1.1343E-8,-4.7034E-8,4.5615E-11
0.0020000,0.0050000,-0.098000,5.7337E-9,1.0652E-8,-4.3485E-8,4.2297E-11
0.0030000,0.0050000,-0.098000,5.1044E-9,1.0735E-8,-3.8191E-8,3.6878E-11
0.0040000,0.0050000,-0.098000,8.6043E-9,9.5288E-9,-3.1294E-8,3.0063E-11
0.0050000,0.0050000,-0.098000,8.0928E-9,8.9387E-9,-2.3121E-8,2.2311E-11
-0.0050000,-0.0050000,-0.097000,-1.8314E-8,-1.8193E-8,-2.5372E-8,4.7108E-11
-0.0040000,-0.0050000,-0.097000,-1.5351E-8,-1.9192E-8,-3.4474E-8,6.4061E-11
-0.0030000,-0.0050000,-0.097000,-1.2767E-8,-2.0647E-8,-4.1778E-8,7.8232E-11
-0.0020000,-0.0050000,-0.097000,-8.9355E-9,-2.2313E-8,-4.7743E-8,8.9107E-11
-0.0010000,-0.0050000,-0.097000,-3.7775E-9,-2.2979E-8,-5.1368E-8,9.5429E-11
0.0000,-0.0050000,-0.097000,-6.0700E-10,-2.3413E-8,-5.3040E-8,9.7511E-11
0.0010000,-0.0050000,-0.097000,4.2039E-9,-2.2716E-8,-5.2779E-8,9.6172E-11
0.0020000,-0.0050000,-0.097000,9.1344E-9,-2.1927E-8,-4.8372E-8,8.8949E-11
0.0030000,-0.0050000,-0.097000,1.2536E-8,-2.0659E-8,-4.2429E-8,7.7978E-11
0.0040000,-0.0050000,-0.097000,1.4415E-8,-2.0074E-8,-3.4781E-8,6.4179E-11
0.0050000,-0.0050000,-0.097000,1.8117E-8,-1.7663E-8,-2.5440E-8,4.7378E-11
-0.0050000,-0.0040000,-0.097000,-2.0045E-8,-1.6447E-8,-3.5500E-8,6.3728E-11
-0.0040000,-0.0040000,-0.097000,-1.7232E-8,-1.7046E-8,-4.3987E-8,8.2304E-11
-0.0030000,-0.0040000,-0.097000,-1.3535E-8,-1.8324E-8,-5.1420E-8,9.7761E-11
-0.0020000,-0.0040000,-0.097000,-1.0729E-8,-1.9254E-8,-5.9941E-8,1.0989E-10
-0.0010000,-0.0040000,-0.097000,-4.5403E-9,-2.0653E-8,-6.3623E-8,1.1748E-10
-2.4395E-19,-0.0040000,-0.097000,-1.1038E-10,-2.1424E-8,-6.5031E-8,1.1980E-10
0.0010000,-0.0040000,-0.097000,5.2181E-9,-2.0482E-8,-6.4269E-8,1.1777E-10
0.0020000,-0.0040000,-0.097000,1.0149E-8,-1.9358E-8,-5.9717E-8,1.0998E-10
0.0030000,-0.0040000,-0.097000,1.3887E-8,-1.8701E-8,-5.3628E-8,9.7563E-11
0.0040000,-0.0040000,-0.097000,1.6916E-8,-1.7149E-8,-4.4885E-8,8.2570E-11
0.0050000,-0.0040000,-0.097000,1.9805E-8,-1.5556E-8,-3.4417E-8,6.3762E-11
-0.0050000,-0.0030000,-0.097000,-2.1267E-8,-1.2185E-8,-4.2407E-8,7.8044E-11
-0.0040000,-0.0030000,-0.097000,-1.8323E-8,-1.3709E-8,-5.1585E-8,9.7863E-11
-0.0030000,-0.0030000,-0.097000,-1.5353E-8,-1.5540E-8,-6.1916E-8,1.1476E-10
-0.0020000,-0.0030000,-0.097000,-1.1495E-8,-1.7117E-8,-6.9164E-8,1.2807E-10
-0.0010000,-0.0030000,-0.097000,-4.6398E-9,-1.6891E-8,-7.2314E-8,1.3706E-10
6.7763E-21,-0.0030000,-0.097000,5.9515E-10,-1.7308E-8,-7.4338E-8,1.3955E-10
0.0010000,-0.0030000,-0.097000,5.7083E-9,-1.6791E-8,-7.2579E-8,1.3626E-10
0.0020000,-0.0030000,-0.097000,1.1292E-8,-1.7857E-8,-6.6709E-8,1.2805E-10
0.0030000,-0.0030000,-0.097000,1.4612E-8,-1.5631E-8,-6.2331E-8,1.1515E-10
0.0040000,-0.0030000,-0.097000,1.9104E-8,-1.3473E-8,-5.3544E-8,9.8370E-11
0.0050000,-0.0030000,-0.097000,2.0872E-8,-1.2407E-8,-4.2696E-8,7.8195E-11
-0.0050000,-0.0020000,-0.097000,-2.3235E-8,-1.0291E-8,-4.7862E-8,8.9078E-11
-0.0040000,-0.0020000,-0.097000,-1.8639E-8,-9.1488E-9,-5.6480E-8,1.0937E-10
-0.0030000,-0.0020000,-0.097000,-1.8139E-8,-1.1256E-8,-6.8165E-8,1.2752E-10
-0.0020000,-0.0020000,-0.097000,-1.1599E-8,-1.2843E-8,-7.3992E-8,1.4193E-10
-0.0010000,-0.0020000,-0.097000,-7.7103E-9,-1.3972E-8,-7.8096E-8,1.5166E-10
8.1315E-20,-0.0020000,-0.097000,8.5230E-10,-1.4043E-8,-8.0534E-8,1.5486E-10
0.0010000,-0.0020000,-0.097000,6.0197E-9,-1.2515E-8,-7.9290E-8,1.5142E-10
0.0020000,-0.0020000,-0.097000,1.1910E-8,-1.1871E-8,-7.4665E-8,1.4270E-10
0.0030000,-0.0020000,-0.097000,1.7668E-8,-1.0600E-8,-6.9332E-8,1.2798E-10
0.0040000,-0.0020000,-0.097000,2.0138E-8,-9.5621E-9,-5.9740E-8,1.0939E-10
0.0050000,-0.0020000,-0.097000,2.1281E-8,-8.9494E-9,-4.9086E-8,8.8518E-11
-0.0050000,-0.0010000,-0.097000,-2.2618E-8,-4.0253E-9,-5.2146E-8,9.5666E-11
-0.0040000,-0.0010000,-0.097000,-1.9524E-8,-5.0848E-9,-6.2149E-8,1.1649E-10
-0.0030000,-0.0010000,-0.097000,-1.7395E-8,-6.2716E-9,-7.1945E-8,1.3628E-10
-0.0020000,-0.0010000,-0.097000,-1.4575E-8,-6.9181E-9,-7.6560E-8,1.5164E-10
-0.0010000,-0.0010000,-0.097000,-6.8705E-9,-8.4606E-9,-8.0953E-8,1.6206E-10
-2.7105E-20,-0.0010000,-0.097000,2.4543E-11,-7.2529E-9,-8.2539E-8,1.6607E-10
0.0010000,-0.0010000,-0.097000,7.8906E-9,-7.2428E-9,-8.2555E-8,1.6206E-10
0.0020000,-0.0010000,-0.097000,1.4064E-8,-6.2152E-9,-7.9420E-8,1.5160E-10