% Model:              Sample_ExBprobe_E.mph
% Version:            COMSOL 6.3.0.290
% Date:               Mar 17 2026, 17:12
% Dimension:          3
% Nodes:              24321
% Expressions:        147
% Description:        x-coordinate, y-coordinate, z-coordinate, Electric field, x-component, Electric field, y-component, Electric field, z-component, Electric potential
% Length unit:        m
% x (m),y (m),z (m),es.Ex (V/m),es.Ey (V/m),es.Ez (V/m),V (V)
-0.0050000,-0.0050000,-0.10000,-0.0000,-0.0000,-0.0000,0.0000
-0.0040000,-0.0050000,-0.10000,-0.0000,-0.0000,-0.0000,0.0000
-0.0030000,-0.0050000,-0.10000,-0.0000,-0.0000,-0.0000,0.0000
-0.0020000,-0.0050000,-0.10000,-0.0000,-0.0000,-0.0000,0.0000
-0.0010000,-0.0050000,-0.10000,-0.0000,-0.0000,-0.0000,0.0000
-4.7434E-20,-0.0050000,-0.10000,-0.0000,-0.0000,-0.0000,0.0000
0.0010000,-0.0050000,-0.10000,-0.0000,-0.0000,-0.0000,0.0000
0.0020000,-0.0050000,-0.10000,-0.0000,-0.0000,-0.0000,0.0000
0.0030000,-0.0050000,-0.10000,-0.0000,-0.0000,-0.0000,0.0000
0.0040000,-0.0050000,-0.10000,-0.0000,-0.0000,-0.0000,0.0000
0.0050000,-0.0050000,-0.10000,-0.0000,-0.0000,-0.0000,0.0000
-0.0050000,-0.0040000,-0.10000,-0.0000,-0.0000,-0.0000,0.0000
-0.0040000,-0.0040000,-0.10000,-0.0000,-0.0000,-0.0000,0.0000
-0.0030000,-0.0040000,-0.10000,-0.0000,-0.0000,-0.0000,0.0000
-0.0020000,-0.0040000,-0.10000,-0.0000,-0.0000,-0.0000,0.0000
-0.0010000,-0.0040000,-0.10000,-0.0000,-0.0000,-0.0000,0.0000
1.8974E-19,-0.0040000,-0.10000,-0.0000,-0.0000,-0.0000,0.0000
0.0010000,-0.0040000,-0.10000,-0.0000,-0.0000,-0.0000,0.0000
0.0020000,-0.0040000,-0.10000,-0.0000,-0.0000,-0.0000,0.0000
0.0030000,-0.0040000,-0.10000,-0.0000,-0.0000,-0.0000,0.0000
0.0040000,-0.0040000,-0.10000,-0.0000,-0.0000,-0.0000,0.0000
0.0050000,-0.0040000,-0.10000,-0.0000,-0.0000,-0.0000,0.0000
-0.0050000,-0.0030000,-0.10000,-0.0000,-0.0000,-0.0000,0.0000
-0.0040000,-0.0030000,-0.10000,-0.0000,-0.0000,-0.0000,0.0000
-0.0030000,-0.0030000,-0.10000,-0.0000,-0.0000,-0.0000,0.0000
-0.0020000,-0.0030000,-0.10000,-0.0000,-0.0000,-0.0000,0.0000
-0.0010000,-0.0030000,-0.10000,-0.0000,-0.0000,-0.0000,0.0000
-1.5378E-20,-0.0030000,-0.10000,-0.0000,-0.0000,-0.0000,0.0000
0.0010000,-0.0030000,-0.10000,-0.0000,-0.0000,-0.0000,0.0000
0.0020000,-0.0030000,-0.10000,-0.0000,-0.0000,-0.0000,0.0000
0.0030000,-0.0030000,-0.10000,-0.0000,-0.0000,-0.0000,0.0000
0.0040000,-0.0030000,-0.10000,-0.0000,-0.0000,-0.0000,0.0000
0.0050000,-0.0030000,-0.10000,-0.0000,-0.0000,-0.0000,0.0000
-0.0050000,-0.0020000,-0.10000,-0.0000,-0.0000,-0.0000,0.0000
-0.0040000,-0.0020000,-0.10000,-0.0000,-0.0000,-0.0000,0.0000
-0.0030000,-0.0020000,-0.10000,-0.0000,-0.0000,-0.0000,0.0000
-0.0020000,-0.0020000,-0.10000,-0.0000,-0.0000,-0.0000,0.0000
-0.0010000,-0.0020000,-0.10000,-0.0000,-0.0000,-0.0000,0.0000
-6.7763E-21,-0.0020000,-0.10000,-0.0000,-0.0000,-0.0000,0.0000
0.0010000,-0.0020000,-0.10000,-0.0000,-0.0000,-0.0000,0.0000
0.0020000,-0.0020000,-0.10000,-0.0000,-0.0000,-0.0000,0.0000
0.0030000,-0.0020000,-0.10000,-0.0000,-0.0000,-0.0000,0.0000
0.0040000,-0.0020000,-0.10000,-0.0000,-0.0000,-0.0000,0.0000
0.0050000,-0.0020000,-0.10000,-0.0000,-0.0000,-0.0000,0.0000
-0.0050000,-0.0010000,-0.10000,-0.0000,-0.0000,-0.0000,0.0000
-0.0040000,-0.0010000,-0.10000,-0.0000,-0.0000,-0.0000,0.0000
-0.0030000,-0.0010000,-0.10000,-0.0000,-0.0000,-0.0000,0.0000
-0.0020000,-0.0010000,-0.10000,-0.0000,-0.0000,-0.0000,0.0000
-0.0010000,-0.0010000,-0.10000,-0.0000,-0.0000,-0.0000,0.0000
-1.4997E-19,-0.0010000,-0.10000,-0.0000,-0.0000,-0.0000,0.0000
0.0010000,-0.0010000,-0.10000,-0.0000,-0.0000,-0.0000,0.0000
0.0020000,-0.0010000,-0.10000,-0.0000,-0.0000,-0.0000,0.0000
0.0030000,-0.0010000,-0.10000,-0.0000,-0.0000,-0.0000,0.0000
0.0040000,-0.0010000,-0.10000,-0.0000,-0.0000,-0.0000,0.0000
0.0050000,-0.0010000,-0.10000,-0.0000,-0.0000,-0.0000,0.0000
-0.0050000,-1.6263E-19,-0.10000,-0.0000,-0.0000,-0.0000,0.0000
-0.0040000,-3.7587E-20,-0.10000,-0.0000,-0.0000,-0.0000,0.0000
-0.0030000,3.0708E-21,-0.10000,-0.0000,-0.0000,-0.0000,0.0000
-0.0020000,-2.0329E-20,-0.10000,-0.0000,-0.0000,-0.0000,0.0000
-0.0010000,-6.3426E-20,-0.10000,-0.0000,-0.0000,-0.0000,0.0000
2.7444E-19,4.7434E-19,-0.10000,4.4242E-10,9.9391E-10,-7.3786E-9,3.5018E-12
0.0010000,-1.6664E-19,-0.10000,7.0357E-9,-4.1557E-10,-6.1832E-9,-2.2861E-25
0.0020000,-5.4210E-20,-0.10000,-0.0000,-0.0000,-0.0000,0.0000
0.0030000,7.5560E-20,-0.10000,-0.0000,-0.0000,-0.0000,0.0000
0.0040000,-9.8050E-21,-0.10000,-0.0000,-0.0000,-0.0000,0.0000
0.0050000,-8.1315E-20,-0.10000,-0.0000,-0.0000,-0.0000,0.0000
-0.0050000,0.0010000,-0.10000,-0.0000,-0.0000,-0.0000,0.0000
-0.0040000,0.0010000,-0.10000,-0.0000,-0.0000,-0.0000,0.0000
-0.0030000,0.0010000,-0.10000,-0.0000,-0.0000,-0.0000,0.0000
-0.0020000,0.0010000,-0.10000,-0.0000,-0.0000,-0.0000,0.0000
-0.0010000,0.0010000,-0.10000,-0.0000,-0.0000,-0.0000,0.0000
1.8010E-19,0.0010000,-0.10000,-0.0000,-0.0000,-0.0000,0.0000
0.0010000,0.0010000,-0.10000,-0.0000,-0.0000,-0.0000,0.0000
0.0020000,0.0010000,-0.10000,-0.0000,-0.0000,-0.0000,0.0000
0.0030000,0.0010000,-0.10000,-0.0000,-0.0000,-0.0000,0.0000
0.0040000,0.0010000,-0.10000,-0.0000,-0.0000,-0.0000,0.0000
0.0050000,0.0010000,-0.10000,-0.0000,-0.0000,-0.0000,0.0000
-0.0050000,0.0020000,-0.10000,-0.0000,-0.0000,-0.0000,0.0000
-0.0040000,0.0020000,-0.10000,-0.0000,-0.0000,-0.0000,0.0000
-0.0030000,0.0020000,-0.10000,-0.0000,-0.0000,-0.0000,0.0000
-0.0020000,0.0020000,-0.10000,-0.0000,-0.0000,-0.0000,0.0000
-0.0010000,0.0020000,-0.10000,-0.0000,-0.0000,-0.0000,0.0000
-2.7105E-20,0.0020000,-0.10000,-0.0000,-0.0000,-0.0000,0.0000
0.0010000,0.0020000,-0.10000,-0.0000,-0.0000,-0.0000,0.0000
0.0020000,0.0020000,-0.10000,-0.0000,-0.0000,-0.0000,0.0000
0.0030000,0.0020000,-0.10000,-0.0000,-0.0000,-0.0000,0.0000
0.0040000,0.0020000,-0.10000,-0.0000,-0.0000,-0.0000,0.0000
0.0050000,0.0020000,-0.10000,-0.0000,-0.0000,-0.0000,0.0000
-0.0050000,0.0030000,-0.10000,-0.0000,-0.0000,-0.0000,0.0000
-0.0040000,0.0030000,-0.10000,-0.0000,-0.0000,-0.0000,0.0000
-0.0030000,0.0030000,-0.10000,-0.0000,-0.0000,-0.0000,0.0000
-0.0020000,0.0030000,-0.10000,-0.0000,-0.0000,-0.0000,0.0000
-0.0010000,0.0030000,-0.10000,-0.0000,-0.0000,-0.0000,0.0000
-2.7105E-20,0.0030000,-0.10000,-0.0000,-0.0000,-0.0000,0.0000
0.0010000,0.0030000,-0.10000,-0.0000,-0.0000,-0.0000,0.0000
0.0020000,0.0030000,-0.10000,-0.0000,-0.0000,-0.0000,0.0000
0.0030000,0.0030000,-0.10000,-0.0000,-0.0000,-0.0000,0.0000
0.0040000,0.0030000,-0.10000,-0.0000,-0.0000,-0.0000,0.0000
0.0050000,0.0030000,-0.10000,-0.0000,-0.0000,-0.0000,0.0000
-0.0050000,0.0040000,-0.10000,-0.0000,-0.0000,-0.0000,0.0000
-0.0040000,0.0040000,-0.10000,-0.0000,-0.0000,-0.0000,0.0000
-0.0030000,0.0040000,-0.10000,-0.0000,-0.0000,-0.0000,0.0000
-0.0020000,0.0040000,-0.10000,-0.0000,-0.0000,-0.0000,0.0000
-0.0010000,0.0040000,-0.10000,-0.0000,-0.0000,-0.0000,0.0000
7.5856E-20,0.0040000,-0.10000,-0.0000,-0.0000,-0.0000,0.0000
0.0010000,0.0040000,-0.10000,-0.0000,-0.0000,-0.0000,0.0000
0.0020000,0.0040000,-0.10000,-0.0000,-0.0000,-0.0000,0.0000
0.0030000,0.0040000,-0.10000,-0.0000,-0.0000,-0.0000,0.0000
0.0040000,0.0040000,-0.10000,-0.0000,-0.0000,-0.0000,0.0000
0.0050000,0.0040000,-0.10000,-0.0000,-0.0000,-0.0000,0.0000
-0.0050000,0.0050000,-0.10000,-0.0000,-0.0000,-0.0000,0.0000
-0.0040000,0.0050000,-0.10000,-0.0000,-0.0000,-0.0000,0.0000
-0.0030000,0.0050000,-0.10000,-0.0000,-0.0000,-0.0000,0.0000
-0.0020000,0.0050000,-0.10000,-0.0000,-0.0000,-0.0000,0.0000
-0.0010000,0.0050000,-0.10000,-0.0000,-0.0000,-0.0000,0.0000
2.7105E-19,0.0050000,-0.10000,-0.0000,-0.0000,-0.0000,0.0000
0.0010000,0.0050000,-0.10000,-0.0000,-0.0000,-0.0000,0.0000
0.0020000,0.0050000,-0.10000,-0.0000,-0.0000,-0.0000,0.0000
0.0030000,0.0050000,-0.10000,-0.0000,-0.0000,-0.0000,0.0000
0.0040000,0.0050000,-0.10000,-0.0000,-0.0000,-0.0000,0.0000
0.0050000,0.0050000,-0.10000,-0.0000,-0.0000,-0.0000,0.0000
-0.0050000,-0.0050000,-0.099000,-1.3152E-22,-8.9290E-23,-1.1216E-8,3.1131E-25
-0.0040000,-0.0050000,-0.099000,-9.3194E-23,-1.3453E-22,-1.3851E-8,3.8445E-25
-0.0030000,-0.0050000,-0.099000,-7.7674E-23,-1.3740E-22,-1.7085E-8,4.7421E-25
-0.0020000,-0.0050000,-0.099000,-5.3914E-23,-1.4259E-22,-1.9551E-8,5.4265E-25
-0.0010000,-0.0050000,-0.099000,-2.5527E-23,-1.4675E-22,-2.1082E-8,5.8513E-25
-4.8052E-20,-0.0050000,-0.099000,-2.5527E-23,-1.4675E-22,-2.2001E-8,6.1066E-25
0.0010000,-0.0050000,-0.099000,6.0887E-23,-1.3938E-22,-2.1818E-8,6.2100E-25
0.0020000,-0.0050000,-0.099000,5.8254E-23,-1.3314E-22,-1.9751E-8,5.5341E-25
0.0030000,-0.0050000,-0.099000,5.8261E-23,-1.4165E-22,-1.7683E-8,4.9663E-25
0.0040000,-0.0050000,-0.099000,1.0139E-22,-1.1265E-22,-1.4296E-8,3.9161E-25
0.0050000,-0.0050000,-0.099000,1.0259E-22,-1.1484E-22,-1.0650E-8,2.9159E-25
-0.0050000,-0.0040000,-0.099000,-1.3152E-22,-8.9290E-23,-1.4433E-8,4.0060E-25
-0.0040000,-0.0040000,-0.099000,-1.1762E-22,-1.0656E-22,-1.8214E-8,5.0553E-25
-0.0030000,-0.0040000,-0.099000,-1.0425E-22,-1.0425E-22,-2.1896E-8,6.0773E-25
-0.0020000,-0.0040000,-0.099000,-9.2246E-23,-1.0875E-22,-2.5257E-8,7.0103E-25
-0.0010000,-0.0040000,-0.099000,-4.1178E-23,-1.3777E-22,-2.6210E-8,7.2749E-25
-8.6221E-20,-0.0040000,-0.099000,1.3353E-23,-1.4179E-22,-2.7078E-8,7.5156E-25
0.0010000,-0.0040000,-0.099000,3.5347E-23,-1.3735E-22,-2.6207E-8,7.2739E-25
0.0020000,-0.0040000,-0.099000,6.5285E-23,-1.2819E-22,-2.4685E-8,6.8514E-25
0.0030000,-0.0040000,-0.099000,1.0866E-22,-1.0413E-22,-2.2257E-8,6.1777E-25
0.0040000,-0.0040000,-0.099000,1.0082E-22,-1.1095E-22,-1.8462E-8,5.0543E-25
0.0050000,-0.0040000,-0.099000,1.2620E-22,-1.0144E-22,-1.4527E-8,4.0321E-25
-0.0050000,-0.0030000,-0.099000,-1.3709E-22,-7.3614E-23,-1.7434E-8,4.8388E-25
-0.0040000,-0.0030000,-0.099000,-1.3709E-22,-7.3614E-23,-2.2373E-8,6.2097E-25
-0.0030000,-0.0030000,-0.099000,-1.0347E-22,-9.5439E-23,-2.5627E-8,7.1129E-25
-0.0020000,-0.0030000,-0.099000,-8.8503E-23,-9.8657E-23,-2.9055E-8,8.0644E-25
-0.0010000,-0.0030000,-0.099000,-5.5724E-23,-1.2959E-22,-3.1782E-8,8.8214E-25
0.0000,-0.0030000,-0.099000,-6.5688E-24,-1.5757E-22,-3.2861E-8,9.1207E-25
0.0010000,-0.0030000,-0.099000,3.4367E-23,-1.4096E-22,-3.1220E-8,8.6653E-25
0.0020000,-0.0030000,-0.099000,8.0264E-23,-1.1450E-22,-2.8942E-8,8.0329E-25
0.0030000,-0.0030000,-0.099000,1.0866E-22,-1.0413E-22,-2.6009E-8,7.2190E-25
0.0040000,-0.0030000,-0.099000,1.1037E-22,-8.9327E-23,-2.2034E-8,6.1156E-25
0.0050000,-0.0030000,-0.099000,1.3888E-22,-7.0645E-23,-1.7567E-8,4.7995E-25
-0.0050000,-0.0020000,-0.099000,-1.4126E-22,-7.1714E-23,-1.9295E-8,5.3553E-25
-0.0040000,-0.0020000,-0.099000,-1.4126E-22,-7.1714E-23,-2.4384E-8,6.7680E-25
-0.0030000,-0.0020000,-0.099000,-1.1464E-22,-8.2659E-23,-2.8974E-8,8.0420E-25
-0.0020000,-0.0020000,-0.099000,-1.3161E-22,-8.5502E-23,-3.4487E-8,9.5721E-25
-0.0010000,-0.0020000,-0.099000,-5.5149E-23,-1.3416E-22,-3.6604E-8,1.0160E-24
1.6941E-21,-0.0020000,-0.099000,-1.4182E-21,8.3336E-22,-3.8555E-8,7.4118E-25
0.0010000,-0.0020000,-0.099000,1.2457E-21,-3.9531E-22,-3.8265E-8,1.3170E-24
0.0020000,-0.0020000,-0.099000,9.1694E-23,-1.0763E-22,-3.3784E-8,9.3768E-25
0.0030000,-0.0020000,-0.099000,1.1793E-22,-9.3934E-23,-2.9350E-8,8.1462E-25
0.0040000,-0.0020000,-0.099000,1.2309E-22,-7.7398E-23,-2.5006E-8,6.9406E-25
0.0050000,-0.0020000,-0.099000,1.4134E-22,-6.9918E-23,-2.0085E-8,5.5748E-25
-0.0050000,-0.0010000,-0.099000,-1.5272E-22,-2.4799E-23,-2.1278E-8,5.9058E-25
-0.0040000,-0.0010000,-0.099000,-1.3408E-22,-2.8689E-23,-2.6332E-8,7.3085E-25
-0.0030000,-0.0010000,-0.099000,-1.3672E-22,-2.7577E-23,-3.1223E-8,8.6660E-25
-0.0020000,-0.0010000,-0.099000,-6.6053E-22,-3.3201E-22,-3.7370E-8,1.0815E-24
-0.0010000,-0.0010000,-0.099000,-7.3056E-9,-8.3215E-9,-2.3977E-8,1.0320E-11
3.7269E-20,-0.0010000,-0.099000,8.4342E-10,-5.9200E-9,-2.2338E-8,1.4358E-11
0.0010000,-0.0010000,-0.099000,8.7627E-9,-7.1503E-9,-2.4178E-8,1.0457E-11
0.0020000,-0.0010000,-0.099000,1.4884E-22,-7.1697E-23,-3.6851E-8,1.0251E-24
0.0030000,-0.0010000,-0.099000,1.2708E-22,-5.1643E-23,-3.1519E-8,8.7483E-25
0.0040000,-0.0010000,-0.099000,1.3662E-22,-2.3934E-23,-2.6481E-8,7.3500E-25
0.0050000,-0.0010000,-0.099000,1.5002E-22,-2.7991E-23,-2.1252E-8,5.8987E-25
-0.0050000,-1.6263E-19,-0.099000,-1.3900E-22,6.2280E-24,-2.2219E-8,6.1671E-25
-0.0040000,-6.8487E-21,-0.099000,-1.3656E-22,-9.9989E-24,-2.7025E-8,7.5010E-25
-0.0030000,-2.7105E-20,-0.099000,-1.7189E-22,-1.4835E-23,-3.3016E-8,9.1637E-25
-0.0020000,5.5505E-20,-0.099000,1.2765E-21,-1.0276E-21,-3.7181E-8,1.1159E-24
-0.0010000,-8.4247E-21,-0.099000,-6.4732E-9,-1.3210E-10,-2.2961E-8,1.4350E-11
2.7105E-20,2.7105E-20,-0.099000,9.6127E-11,4.1779E-11,-2.1655E-8,1.7548E-11
0.0010000,-1.3553E-20,-0.099000,6.2822E-9,-2.1537E-10,-2.2560E-8,1.4357E-11
0.0020000,-1.5407E-32,-0.099000,2.7454E-21,-2.6168E-21,-3.9267E-8,1.6811E-24
0.0030000,5.4210E-20,-0.099000,1.8839E-22,1.0527E-23,-3.2480E-8,9.0150E-25
0.0040000,-1.2197E-19,-0.099000,1.3878E-22,2.1414E-23,-2.7083E-8,7.5171E-25
0.0050000,-1.8129E-19,-0.099000,1.4587E-22,1.7348E-23,-2.1791E-8,6.0483E-25
-0.0050000,0.0010000,-0.099000,-1.4599E-22,4.9664E-23,-2.1765E-8,6.0410E-25
-0.0040000,0.0010000,-0.099000,-1.3780E-22,2.8339E-23,-2.6842E-8,7.4501E-25
-0.0030000,0.0010000,-0.099000,-1.5314E-22,3.3722E-23,-3.1234E-8,8.6691E-25
-0.0020000,0.0010000,-0.099000,-1.5314E-22,3.3722E-23,-3.6751E-8,1.0201E-24
-0.0010000,0.0010000,-0.099000,-8.4143E-9,6.0861E-9,-2.3971E-8,1.0352E-11
-1.3553E-19,0.0010000,-0.099000,-1.1133E-10,7.4543E-9,-2.3178E-8,1.4037E-11
0.0010000,0.0010000,-0.099000,8.5893E-9,7.1918E-9,-2.3999E-8,1.0391E-11
0.0020000,0.0010000,-0.099000,1.4498E-22,9.7324E-23,-3.6832E-8,1.0223E-24
0.0030000,0.0010000,-0.099000,1.3752E-22,4.0554E-23,-3.1211E-8,8.6628E-25
0.0040000,0.0010000,-0.099000,1.3752E-22,4.0554E-23,-2.6257E-8,7.2877E-25
0.0050000,0.0010000,-0.099000,1.4893E-22,2.1812E-23,-2.1078E-8,5.8502E-25
-0.0050000,0.0020000,-0.099000,-1.4599E-22,4.9664E-23,-1.9976E-8,5.5443E-25
-0.0040000,0.0020000,-0.099000,-1.2035E-22,6.0438E-23,-2.4801E-8,6.8838E-25
-0.0030000,0.0020000,-0.099000,-1.0446E-22,8.7040E-23,-2.8794E-8,7.9919E-25
-0.0020000,0.0020000,-0.099000,-1.3902E-22,1.1788E-22,-3.3513E-8,9.3017E-25
-0.0010000,0.0020000,-0.099000,-1.5040E-21,-1.2906E-21,-3.6474E-8,2.5352E-25
4.1909E-19,0.0020000,-0.099000,1.9031E-21,-1.6546E-22,-3.8790E-8,-1.4637E-24
0.0010000,0.0020000,-0.099000,7.2885E-23,1.4736E-22,-3.6432E-8,1.0112E-24
0.0020000,0.0020000,-0.099000,7.2885E-23,1.4736E-22,-3.3806E-8,9.3830E-25
0.0030000,0.0020000,-0.099000,1.1621E-22,7.5643E-23,-2.9094E-8,8.0753E-25
0.0040000,0.0020000,-0.099000,1.3098E-22,6.3748E-23,-2.4165E-8,6.7071E-25
0.0050000,0.0020000,-0.099000,1.3098E-22,6.3748E-23,-1.9446E-8,5.3973E-25
-0.0050000,0.0030000,-0.099000,-1.2733E-22,9.4450E-23,-1.7363E-8,4.8193E-25
-0.0040000,0.0030000,-0.099000,-1.0533E-22,1.1307E-22,-2.1996E-8,6.1051E-25
-0.0030000,0.0030000,-0.099000,-1.0935E-22,8.9188E-23,-2.5657E-8,7.1214E-25
-0.0020000,0.0030000,-0.099000,-9.0691E-23,9.6310E-23,-2.8937E-8,8.0316E-25
-0.0010000,0.0030000,-0.099000,-4.4303E-23,1.3370E-22,-3.0830E-8,8.5569E-25
6.9397E-20,0.0030000,-0.099000,-2.1946E-23,1.3438E-22,-3.1960E-8,8.8707E-25
0.0010000,0.0030000,-0.099000,6.5992E-23,1.2749E-22,-3.1098E-8,8.6314E-25
0.0020000,0.0030000,-0.099000,7.5607E-23,1.0921E-22,-2.8591E-8,7.9357E-25
0.0030000,0.0030000,-0.099000,9.2171E-23,1.0533E-22,-2.5371E-8,7.0419E-25
0.0040000,0.0030000,-0.099000,1.3139E-22,8.2001E-23,-2.1291E-8,5.9095E-25
0.0050000,0.0030000,-0.099000,1.2948E-22,8.1495E-23,-1.7080E-8,4.7407E-25
-0.0050000,0.0040000,-0.099000,-1.2733E-22,9.4450E-23,-1.3960E-8,3.8748E-25
-0.0040000,0.0040000,-0.099000,-1.0222E-22,1.1092E-22,-1.7944E-8,4.9803E-25
-0.0030000,0.0040000,-0.099000,-9.0128E-23,1.1689E-22,-2.1588E-8,5.9919E-25
-0.0020000,0.0040000,-0.099000,-5.5854E-23,1.4793E-22,-2.4472E-8,6.7922E-25
-0.0010000,0.0040000,-0.099000,-4.4298E-23,1.3535E-22,-2.5991E-8,7.2139E-25
1.8575E-20,0.0040000,-0.099000,-2.3767E-23,1.3919E-22,-2.7094E-8,7.5201E-25
0.0010000,0.0040000,-0.099000,6.3965E-23,1.2327E-22,-2.6516E-8,7.3598E-25
0.0020000,0.0040000,-0.099000,6.3965E-23,1.2327E-22,-2.4212E-8,6.7201E-25
0.0030000,0.0040000,-0.099000,8.1098E-23,1.2789E-22,-2.1329E-8,5.9199E-25
0.0040000,0.0040000,-0.099000,1.3139E-22,8.2001E-23,-1.8337E-8,5.0895E-25
0.0050000,0.0040000,-0.099000,1.3192E-22,9.5650E-23,-1.4123E-8,3.9200E-25
-0.0050000,0.0050000,-0.099000,-9.7178E-23,1.2718E-22,-1.0538E-8,2.9250E-25
-0.0040000,0.0050000,-0.099000,-9.7178E-23,1.2718E-22,-1.4040E-8,3.8968E-25
-0.0030000,0.0050000,-0.099000,-5.4341E-23,1.4318E-22,-1.7175E-8,4.7669E-25
-0.0020000,0.0050000,-0.099000,-5.5854E-23,1.4793E-22,-1.9142E-8,5.3129E-25
-0.0010000,0.0050000,-0.099000,-4.4298E-23,1.3535E-22,-2.1114E-8,5.8604E-25
-5.4210E-20,0.0050000,-0.099000,1.2320E-23,1.5069E-22,-2.1189E-8,5.8810E-25
0.0010000,0.0050000,-0.099000,1.2320E-23,1.5069E-22,-2.0745E-8,5.7578E-25
0.0020000,0.0050000,-0.099000,8.1098E-23,1.2789E-22,-1.9643E-8,5.4520E-25
0.0030000,0.0050000,-0.099000,6.5418E-23,1.3966E-22,-1.6869E-8,4.6822E-25
0.0040000,0.0050000,-0.099000,9.9119E-23,1.2360E-22,-1.3601E-8,3.7750E-25
0.0050000,0.0050000,-0.099000,1.3192E-22,9.5650E-23,-1.0677E-8,2.9635E-25
-0.0050000,-0.0050000,-0.098000,-4.4510E-9,-4.0885E-9,-1.1162E-8,1.0724E-11
-0.0040000,-0.0050000,-0.098000,-3.4519E-9,-4.9595E-9,-1.5235E-8,1.4563E-11
-0.0030000,-0.0050000,-0.098000,-3.0408E-9,-5.5455E-9,-1.8629E-8,1.7808E-11
-0.0020000,-0.0050000,-0.098000,-2.1957E-9,-4.8028E-9,-2.1226E-8,2.0427E-11
-0.0010000,-0.0050000,-0.098000,-7.4591E-10,-4.6603E-9,-2.2968E-8,2.1975E-11
-1.0842E-19,-0.0050000,-0.098000,-4.0043E-10,-5.6999E-9,-2.3042E-8,2.2548E-11
0.0010000,-0.0050000,-0.098000,1.2219E-9,-5.2990E-9,-2.2614E-8,2.2020E-11
0.0020000,-0.0050000,-0.098000,2.1349E-9,-4.9727E-9,-2.0930E-8,2.0380E-11
0.0030000,-0.0050000,-0.098000,2.7695E-9,-4.9864E-9,-1.8169E-8,1.7992E-11
0.0040000,-0.0050000,-0.098000,3.6460E-9,-4.1664E-9,-1.5243E-8,1.4770E-11
0.0050000,-0.0050000,-0.098000,4.1026E-9,-3.9126E-9,-1.1226E-8,1.0993E-11
-0.0050000,-0.0040000,-0.098000,-4.5280E-9,-3.6102E-9,-1.4975E-8,1.4472E-11
-0.0040000,-0.0040000,-0.098000,-4.3125E-9,-3.8918E-9,-1.9499E-8,1.8814E-11
-0.0030000,-0.0040000,-0.098000,-3.4477E-9,-4.1522E-9,-2.3163E-8,2.2547E-11
-0.0020000,-0.0040000,-0.098000,-2.3194E-9,-4.8117E-9,-2.5755E-8,2.5301E-11
-0.0010000,-0.0040000,-0.098000,-9.2017E-10,-5.2233E-9,-2.7603E-8,2.7073E-11
5.4210E-20,-0.0040000,-0.098000,2.7168E-10,-5.1283E-9,-2.8246E-8,2.7676E-11
0.0010000,-0.0040000,-0.098000,1.2735E-9,-4.9485E-9,-2.7778E-8,2.6992E-11
0.0020000,-0.0040000,-0.098000,2.7118E-9,-4.7386E-9,-2.5979E-8,2.5275E-11
0.0030000,-0.0040000,-0.098000,3.1589E-9,-4.1941E-9,-2.2863E-8,2.2588E-11
0.0040000,-0.0040000,-0.098000,3.7448E-9,-4.0502E-9,-1.9566E-8,1.8983E-11
0.0050000,-0.0040000,-0.098000,4.5425E-9,-3.6644E-9,-1.5062E-8,1.4828E-11
-0.0050000,-0.0030000,-0.098000,-4.9845E-9,-2.5707E-9,-1.8366E-8,1.7734E-11
-0.0040000,-0.0030000,-0.098000,-4.3883E-9,-3.1018E-9,-2.3180E-8,2.2549E-11
-0.0030000,-0.0030000,-0.098000,-3.7559E-9,-3.7560E-9,-2.6920E-8,2.6286E-11
-0.0020000,-0.0030000,-0.098000,-3.0222E-9,-4.0695E-9,-3.0270E-8,2.9657E-11
-0.0010000,-0.0030000,-0.098000,-1.1887E-9,-4.2391E-9,-3.2065E-8,3.1751E-11
1.3553E-20,-0.0030000,-0.098000,2.8058E-10,-5.0116E-9,-3.2828E-8,3.2606E-11
0.0010000,-0.0030000,-0.098000,1.3292E-9,-4.5059E-9,-3.2094E-8,3.1886E-11
0.0020000,-0.0030000,-0.098000,2.8918E-9,-4.1252E-9,-3.0349E-8,2.9645E-11
0.0030000,-0.0030000,-0.098000,3.6612E-9,-3.7406E-9,-2.7058E-8,2.6535E-11
0.0040000,-0.0030000,-0.098000,4.1577E-9,-2.7405E-9,-2.3020E-8,2.2547E-11
0.0050000,-0.0030000,-0.098000,4.9339E-9,-2.5865E-9,-1.8384E-8,1.8001E-11
-0.0050000,-0.0020000,-0.098000,-5.0628E-9,-2.5401E-9,-2.1071E-8,2.0216E-11
-0.0040000,-0.0020000,-0.098000,-4.8019E-9,-2.6559E-9,-2.6053E-8,2.5266E-11
-0.0030000,-0.0020000,-0.098000,-3.9448E-9,-3.2654E-9,-3.0613E-8,2.9631E-11
-0.0020000,-0.0020000,-0.098000,-3.3205E-9,-3.2872E-9,-3.3276E-8,3.3449E-11
-0.0010000,-0.0020000,-0.098000,-5.7146E-9,-4.1159E-9,-3.3680E-8,3.6475E-11
2.7105E-20,-0.0020000,-0.098000,1.7555E-10,-5.1233E-9,-3.4664E-8,3.7562E-11
0.0010000,-0.0020000,-0.098000,2.1628E-9,-4.7646E-9,-3.4120E-8,3.6338E-11
0.0020000,-0.0020000,-0.098000,3.2447E-9,-3.2998E-9,-3.3264E-8,3.3537E-11
0.0030000,-0.0020000,-0.098000,4.1667E-9,-2.5139E-9,-2.9367E-8,2.9646E-11
0.0040000,-0.0020000,-0.098000,4.4300E-9,-2.2845E-9,-2.5622E-8,2.5257E-11
0.0050000,-0.0020000,-0.098000,5.1272E-9,-2.0177E-9,-2.0736E-8,2.0465E-11
-0.0050000,-0.0010000,-0.098000,-5.6113E-9,-9.5303E-10,-2.2448E-8,2.1741E-11
-0.0040000,-0.0010000,-0.098000,-5.4198E-9,-9.3519E-10,-2.7978E-8,2.7097E-11
-0.0030000,-0.0010000,-0.098000,-4.4723E-9,-1.3439E-9,-3.2098E-8,3.1857E-11
-0.0020000,-0.0010000,-0.098000,-4.5309E-9,-4.0645E-9,-3.4048E-8,3.6358E-11
-0.0010000,-0.0010000,-0.098000,-3.6424E-9,-3.8116E-9,-3.3470E-8,4.0849E-11
5.2516E-20,-0.0010000,-0.098000,6.5807E-10,-3.5465E-9,-3.4163E-8,4.2573E-11
0.0010000,-0.0010000,-0.098000,3.7782E-9,-3.8136E-9,-3.3442E-8,4.0667E-11
0.0020000,-0.0010000,-0.098000,4.8415E-9,-1.9970E-9,-3.4157E-8,3.6208E-11
0.0030000,-0.0010000,-0.098000,4.4400E-9,-1.4959E-9,-3.1152E-8,3.1630E-11
0.0040000,-0.0010000,-0.098000,4.9221E-9,-8.6231E-10,-2.7518E-8,2.6999E-11
0.0050000,-0.0010000,-0.098000,5.4275E-9,-1.0337E-9,-2.2527E-8,2.1906E-11
-0.0050000,1.2197E-19,-0.098000,-5.3227E-9,-9.7511E-11,-2.3061E-8,2.2479E-11
-0.0040000,1.3553E-19,-0.098000,-4.8967E-9,1.4547E-10,-2.8038E-8,2.7608E-11
-0.0030000,-8.1315E-20,-0.098000,-4.6471E-9,3.3275E-10,-3.2631E-8,3.2367E-11
-0.0020000,-1.3553E-20,-0.098000,-5.6408E-9,-6.7738E-11,-3.4424E-8,3.7617E-11
-0.0010000,-2.7105E-20,-0.098000,-3.8483E-9,1.0539E-9,-3.3103E-8,4.2434E-11
2.6893E-20,1.2176E-19,-0.098000,-5.0275E-10,2.4489E-11,-3.2182E-8,4.4637E-11
0.0010000,0.0000,-0.098000,3.8405E-9,-3.6525E-10,-3.2636E-8,4.2777E-11
0.0020000,2.0329E-20,-0.098000,6.3335E-9,-1.3097E-9,-3.2846E-8,3.7777E-11
0.0030000,5.4210E-20,-0.098000,5.0740E-9,-1.3925E-10,-3.2486E-8,3.2429E-11
0.0040000,3.3881E-20,-0.098000,4.9257E-9,1.6689E-10,-2.8002E-8,2.7579E-11
0.0050000,-3.3881E-20,-0.098000,5.2077E-9,3.2950E-10,-2.2908E-8,2.2406E-11
-0.0050000,0.0010000,-0.098000,-5.2697E-9,1.2011E-9,-2.2091E-8,2.2134E-11
-0.0040000,0.0010000,-0.098000,-4.6305E-9,1.5103E-9,-2.6897E-8,2.6853E-11
-0.0030000,0.0010000,-0.098000,-4.3481E-9,1.4381E-9,-3.1815E-8,3.1351E-11
-0.0020000,0.0010000,-0.098000,-5.2244E-9,2.4925E-9,-3.4646E-8,3.5926E-11
-0.0010000,0.0010000,-0.098000,-4.0274E-9,3.8315E-9,-3.2734E-8,4.0456E-11
0.0000,0.0010000,-0.098000,-5.8908E-10,4.3382E-9,-3.2281E-8,4.2711E-11
0.0010000,0.0010000,-0.098000,3.6501E-9,4.2492E-9,-3.3280E-8,4.1057E-11
0.0020000,0.0010000,-0.098000,3.8838E-9,1.8194E-9,-3.2653E-8,3.6488E-11
0.0030000,0.0010000,-0.098000,4.9113E-9,1.7981E-9,-3.1937E-8,3.1677E-11
0.0040000,0.0010000,-0.098000,4.7685E-9,1.1435E-9,-2.7451E-8,2.6879E-11
0.0050000,0.0010000,-0.098000,5.4743E-9,7.8555E-10,-2.2435E-8,2.1736E-11
-0.0050000,0.0020000,-0.098000,-5.2629E-9,1.8035E-9,-2.0839E-8,2.0238E-11
-0.0040000,0.0020000,-0.098000,-4.4539E-9,2.3522E-9,-2.5432E-8,2.5096E-11
-0.0030000,0.0020000,-0.098000,-3.9294E-9,2.6523E-9,-2.9505E-8,2.9198E-11
-0.0020000,0.0020000,-0.098000,-3.4728E-9,3.1533E-9,-3.3099E-8,3.2954E-11
-0.0010000,0.0020000,-0.098000,-2.4858E-9,5.1737E-9,-3.4990E-8,3.5972E-11
0.0000,0.0020000,-0.098000,-2.2993E-10,4.2464E-9,-3.2823E-8,3.7223E-11
0.0010000,0.0020000,-0.098000,2.6213E-9,5.6177E-9,-3.4983E-8,3.6270E-11
0.0020000,0.0020000,-0.098000,3.5021E-9,3.5881E-9,-3.3289E-8,3.3253E-11
0.0030000,0.0020000,-0.098000,3.8911E-9,2.7598E-9,-3.0025E-8,2.9477E-11
0.0040000,0.0020000,-0.098000,5.0851E-9,2.3687E-9,-2.5879E-8,2.5008E-11
0.0050000,0.0020000,-0.098000,4.6609E-9,2.2243E-9,-2.0943E-8,2.0231E-11
-0.0050000,0.0030000,-0.098000,-4.8976E-9,3.0188E-9,-1.8179E-8,1.7820E-11
-0.0040000,0.0030000,-0.098000,-4.0702E-9,3.2275E-9,-2.2670E-8,2.2319E-11
-0.0030000,0.0030000,-0.098000,-3.1983E-9,3.5630E-9,-2.6588E-8,2.6147E-11
-0.0020000,0.0030000,-0.098000,-2.7267E-9,4.0582E-9,-2.9668E-8,2.9340E-11
-0.0010000,0.0030000,-0.098000,-1.5325E-9,4.4432E-9,-3.1470E-8,3.1256E-11
-5.4210E-20,0.0030000,-0.098000,-4.6530E-10,4.4900E-9,-3.2380E-8,3.2007E-11
0.0010000,0.0030000,-0.098000,1.7246E-9,4.3634E-9,-3.1864E-8,3.1324E-11
0.0020000,0.0030000,-0.098000,2.3776E-9,4.5933E-9,-2.9554E-8,2.9137E-11
0.0030000,0.0030000,-0.098000,3.0204E-9,3.7847E-9,-2.6960E-8,2.6044E-11
0.0040000,0.0030000,-0.098000,4.6986E-9,3.0353E-9,-2.3025E-8,2.2184E-11
0.0050000,0.0030000,-0.098000,4.6960E-9,2.9398E-9,-1.8153E-8,1.7464E-11
-0.0050000,0.0040000,-0.098000,-4.5826E-9,3.5403E-9,-1.4899E-8,1.4467E-11
-0.0040000,0.0040000,-0.098000,-3.6828E-9,3.9964E-9,-1.9091E-8,1.8517E-11
-0.0030000,0.0040000,-0.098000,-3.2472E-9,4.2114E-9,-2.2611E-8,2.2099E-11
-0.0020000,0.0040000,-0.098000,-2.1592E-9,4.6284E-9,-2.5474E-8,2.5057E-11
-0.0010000,0.0040000,-0.098000,-8.5629E-10,5.0148E-9,-2.6803E-8,2.6520E-11
-1.3553E-20,0.0040000,-0.098000,-1.5861E-10,5.0149E-9,-2.7590E-8,2.7253E-11
0.0010000,0.0040000,-0.098000,1.2073E-9,4.8151E-9,-2.7093E-8,2.6734E-11
0.0020000,0.0040000,-0.098000,2.7971E-9,4.1198E-9,-2.5815E-8,2.4660E-11
0.0030000,0.0040000,-0.098000,2.8582E-9,4.1792E-9,-2.2689E-8,2.2121E-11
0.0040000,0.0040000,-0.098000,3.9300E-9,4.1818E-9,-1.9236E-8,1.8729E-11
0.0050000,0.0040000,-0.098000,4.6895E-9,3.4833E-9,-1.4771E-8,1.4427E-11
-0.0050000,0.0050000,-0.098000,-4.2180E-9,4.2180E-9,-1.0893E-8,1.0725E-11
-0.0040000,0.0050000,-0.098000,-3.5545E-9,4.4597E-9,-1.4801E-8,1.4377E-11
-0.0030000,0.0050000,-0.098000,-2.8239E-9,5.1417E-9,-1.8161E-8,1.7750E-11
-0.0020000,0.0050000,-0.098000,-2.0124E-9,5.3297E-9,-2.0664E-8,1.9903E-11
-0.0010000,0.0050000,-0.098000,-1.1745E-9,5.1084E-9,-2.2146E-8,2.1687E-11
-2.7105E-20,0.0050000,-0.098000,2.9939E-10,5.3748E-9,-2.2736E-8,2.2011E-11
0.0010000,0.0050000,-0.098000,5.8941E-10,5.3730E-9,-2.2279E-8,2.1607E-11
0.0020000,0.0050000,-0.098000,2.7160E-9,5.0454E-9,-2.0598E-8,2.0036E-11
0.0030000,0.0050000,-0.098000,2.4179E-9,5.0849E-9,-1.8090E-8,1.7469E-11
0.0040000,0.0050000,-0.098000,4.0757E-9,4.5137E-9,-1.4824E-8,1.4240E-11
0.0050000,0.0050000,-0.098000,3.8334E-9,4.2341E-9,-1.0952E-8,1.0568E-11
-0.0050000,-0.0050000,-0.097000,-8.6750E-9,-8.6177E-9,-1.2018E-8,2.2314E-11
-0.0040000,-0.0050000,-0.097000,-7.2716E-9,-9.0912E-9,-1.6330E-8,3.0345E-11
-0.0030000,-0.0050000,-0.097000,-6.0476E-9,-9.7801E-9,-1.9789E-8,3.7057E-11
-0.0020000,-0.0050000,-0.097000,-4.2326E-9,-1.0569E-8,-2.2615E-8,4.2209E-11
-0.0010000,-0.0050000,-0.097000,-1.7894E-9,-1.0885E-8,-2.4332E-8,4.5203E-11
0.0000,-0.0050000,-0.097000,-2.8753E-10,-1.1090E-8,-2.5124E-8,4.6190E-11
0.0010000,-0.0050000,-0.097000,1.9913E-9,-1.0760E-8,-2.5000E-8,4.5555E-11
0.0020000,-0.0050000,-0.097000,4.3268E-9,-1.0387E-8,-2.2913E-8,4.2134E-11
0.0030000,-0.0050000,-0.097000,5.9383E-9,-9.7859E-9,-2.0098E-8,3.6937E-11
0.0040000,-0.0050000,-0.097000,6.8283E-9,-9.5087E-9,-1.6475E-8,3.0401E-11
0.0050000,-0.0050000,-0.097000,8.5817E-9,-8.3667E-9,-1.2051E-8,2.2442E-11
-0.0050000,-0.0040000,-0.097000,-9.4949E-9,-7.7905E-9,-1.6816E-8,3.0187E-11
-0.0040000,-0.0040000,-0.097000,-8.1624E-9,-8.0742E-9,-2.0836E-8,3.8986E-11
-0.0030000,-0.0040000,-0.097000,-6.4115E-9,-8.6798E-9,-2.4357E-8,4.6308E-11
-0.0020000,-0.0040000,-0.097000,-5.0822E-9,-9.1202E-9,-2.8393E-8,5.2054E-11
-0.0010000,-0.0040000,-0.097000,-2.1507E-9,-9.7828E-9,-3.0137E-8,5.5648E-11
-2.4395E-19,-0.0040000,-0.097000,-5.2286E-11,-1.0148E-8,-3.0804E-8,5.6749E-11
0.0010000,-0.0040000,-0.097000,2.4717E-9,-9.7020E-9,-3.0443E-8,5.5786E-11
0.0020000,-0.0040000,-0.097000,4.8075E-9,-9.1698E-9,-2.8287E-8,5.2094E-11
0.0030000,-0.0040000,-0.097000,6.5781E-9,-8.8582E-9,-2.5403E-8,4.6214E-11
0.0040000,-0.0040000,-0.097000,8.0129E-9,-8.1232E-9,-2.1261E-8,3.9112E-11
0.0050000,-0.0040000,-0.097000,9.3812E-9,-7.3686E-9,-1.6303E-8,3.0203E-11
-0.0050000,-0.0030000,-0.097000,-1.0074E-8,-5.7719E-9,-2.0087E-8,3.6968E-11
-0.0040000,-0.0030000,-0.097000,-8.6794E-9,-6.4938E-9,-2.4435E-8,4.6356E-11
-0.0030000,-0.0030000,-0.097000,-7.2723E-9,-7.3609E-9,-2.9329E-8,5.4358E-11
-0.0020000,-0.0030000,-0.097000,-5.4449E-9,-8.1081E-9,-3.2762E-8,6.0664E-11
-0.0010000,-0.0030000,-0.097000,-2.1978E-9,-8.0009E-9,-3.4254E-8,6.4924E-11
6.7763E-21,-0.0030000,-0.097000,2.8191E-10,-8.1987E-9,-3.5213E-8,6.6104E-11
0.0010000,-0.0030000,-0.097000,2.7039E-9,-7.9534E-9,-3.4380E-8,6.4545E-11
0.0020000,-0.0030000,-0.097000,5.3487E-9,-8.4585E-9,-3.1599E-8,6.0653E-11
0.0030000,-0.0030000,-0.097000,6.9215E-9,-7.4043E-9,-2.9525E-8,5.4546E-11
0.0040000,-0.0030000,-0.097000,9.0492E-9,-6.3817E-9,-2.5363E-8,4.6596E-11
0.0050000,-0.0030000,-0.097000,9.8865E-9,-5.8770E-9,-2.0224E-8,3.7040E-11
-0.0050000,-0.0020000,-0.097000,-1.1006E-8,-4.8749E-9,-2.2671E-8,4.2195E-11
-0.0040000,-0.0020000,-0.097000,-8.8289E-9,-4.3336E-9,-2.6754E-8,5.1807E-11
-0.0030000,-0.0020000,-0.097000,-8.5922E-9,-5.3316E-9,-3.2289E-8,6.0404E-11
-0.0020000,-0.0020000,-0.097000,-5.4942E-9,-6.0838E-9,-3.5049E-8,6.7228E-11
-0.0010000,-0.0020000,-0.097000,-3.6522E-9,-6.6182E-9,-3.6993E-8,7.1839E-11
8.1315E-20,-0.0020000,-0.097000,4.0372E-10,-6.6519E-9,-3.8148E-8,7.3356E-11
0.0010000,-0.0020000,-0.097000,2.8514E-9,-5.9281E-9,-3.7558E-8,7.1724E-11
0.0020000,-0.0020000,-0.097000,5.6414E-9,-5.6230E-9,-3.5368E-8,6.7593E-11
0.0030000,-0.0020000,-0.097000,8.3690E-9,-5.0210E-9,-3.2841E-8,6.0621E-11
0.0040000,-0.0020000,-0.097000,9.5392E-9,-4.5294E-9,-2.8298E-8,5.1816E-11
0.0050000,-0.0020000,-0.097000,1.0080E-8,-4.2392E-9,-2.3251E-8,4.1930E-11
-0.0050000,-0.0010000,-0.097000,-1.0714E-8,-1.9067E-9,-2.4701E-8,4.5315E-11
-0.0040000,-0.0010000,-0.097000,-9.2484E-9,-2.4086E-9,-2.9439E-8,5.5178E-11
-0.0030000,-0.0010000,-0.097000,-8.2395E-9,-2.9708E-9,-3.4079E-8,6.4555E-11
-0.0020000,-0.0010000,-0.097000,-6.9038E-9,-3.2770E-9,-3.6265E-8,7.1827E-11
-0.0010000,-0.0010000,-0.097000,-3.2544E-9,-4.0076E-9,-3.8346E-8,7.6766E-11
-2.7105E-20,-0.0010000,-0.097000,1.1626E-11,-3.4356E-9,-3.9098E-8,7.8665E-11
0.0010000,-0.0010000,-0.097000,3.7377E-9,-3.4308E-9,-3.9105E-8,7.6767E-11
0.0020000,-0.0010000,-0.097000,6.6620E-9,-2.9440E-9,-3.7620E-8,7.1809E-11