% Model:              Sample_ExBprobe_E.mph
% Version:            COMSOL 6.3.0.290
% Date:               Mar 17 2026, 17:12
% Dimension:          3
% Nodes:              24321
% Expressions:        147
% Description:        x-coordinate, y-coordinate, z-coordinate, Electric field, x-component, Electric field, y-component, Electric field, z-component, Electric potential
% Length unit:        m
% x (m),y (m),z (m),es.Ex (V/m),es.Ey (V/m),es.Ez (V/m),V (V)
-0.0050000,-0.0050000,-0.10000,-0.0000,-0.0000,-0.0000,0.0000
-0.0040000,-0.0050000,-0.10000,-0.0000,-0.0000,-0.0000,0.0000
-0.0030000,-0.0050000,-0.10000,-0.0000,-0.0000,-0.0000,0.0000
-0.0020000,-0.0050000,-0.10000,-0.0000,-0.0000,-0.0000,0.0000
-0.0010000,-0.0050000,-0.10000,-0.0000,-0.0000,-0.0000,0.0000
-4.7434E-20,-0.0050000,-0.10000,-0.0000,-0.0000,-0.0000,0.0000
0.0010000,-0.0050000,-0.10000,-0.0000,-0.0000,-0.0000,0.0000
0.0020000,-0.0050000,-0.10000,-0.0000,-0.0000,-0.0000,0.0000
0.0030000,-0.0050000,-0.10000,-0.0000,-0.0000,-0.0000,0.0000
0.0040000,-0.0050000,-0.10000,-0.0000,-0.0000,-0.0000,0.0000
0.0050000,-0.0050000,-0.10000,-0.0000,-0.0000,-0.0000,0.0000
-0.0050000,-0.0040000,-0.10000,-0.0000,-0.0000,-0.0000,0.0000
-0.0040000,-0.0040000,-0.10000,-0.0000,-0.0000,-0.0000,0.0000
-0.0030000,-0.0040000,-0.10000,-0.0000,-0.0000,-0.0000,0.0000
-0.0020000,-0.0040000,-0.10000,-0.0000,-0.0000,-0.0000,0.0000
-0.0010000,-0.0040000,-0.10000,-0.0000,-0.0000,-0.0000,0.0000
1.8974E-19,-0.0040000,-0.10000,-0.0000,-0.0000,-0.0000,0.0000
0.0010000,-0.0040000,-0.10000,-0.0000,-0.0000,-0.0000,0.0000
0.0020000,-0.0040000,-0.10000,-0.0000,-0.0000,-0.0000,0.0000
0.0030000,-0.0040000,-0.10000,-0.0000,-0.0000,-0.0000,0.0000
0.0040000,-0.0040000,-0.10000,-0.0000,-0.0000,-0.0000,0.0000
0.0050000,-0.0040000,-0.10000,-0.0000,-0.0000,-0.0000,0.0000
-0.0050000,-0.0030000,-0.10000,-0.0000,-0.0000,-0.0000,0.0000
-0.0040000,-0.0030000,-0.10000,-0.0000,-0.0000,-0.0000,0.0000
-0.0030000,-0.0030000,-0.10000,-0.0000,-0.0000,-0.0000,0.0000
-0.0020000,-0.0030000,-0.10000,-0.0000,-0.0000,-0.0000,0.0000
-0.0010000,-0.0030000,-0.10000,-0.0000,-0.0000,-0.0000,0.0000
-1.5378E-20,-0.0030000,-0.10000,-0.0000,-0.0000,-0.0000,0.0000
0.0010000,-0.0030000,-0.10000,-0.0000,-0.0000,-0.0000,0.0000
0.0020000,-0.0030000,-0.10000,-0.0000,-0.0000,-0.0000,0.0000
0.0030000,-0.0030000,-0.10000,-0.0000,-0.0000,-0.0000,0.0000
0.0040000,-0.0030000,-0.10000,-0.0000,-0.0000,-0.0000,0.0000
0.0050000,-0.0030000,-0.10000,-0.0000,-0.0000,-0.0000,0.0000
-0.0050000,-0.0020000,-0.10000,-0.0000,-0.0000,-0.0000,0.0000
-0.0040000,-0.0020000,-0.10000,-0.0000,-0.0000,-0.0000,0.0000
-0.0030000,-0.0020000,-0.10000,-0.0000,-0.0000,-0.0000,0.0000
-0.0020000,-0.0020000,-0.10000,-0.0000,-0.0000,-0.0000,0.0000
-0.0010000,-0.0020000,-0.10000,-0.0000,-0.0000,-0.0000,0.0000
-6.7763E-21,-0.0020000,-0.10000,-0.0000,-0.0000,-0.0000,0.0000
0.0010000,-0.0020000,-0.10000,-0.0000,-0.0000,-0.0000,0.0000
0.0020000,-0.0020000,-0.10000,-0.0000,-0.0000,-0.0000,0.0000
0.0030000,-0.0020000,-0.10000,-0.0000,-0.0000,-0.0000,0.0000
0.0040000,-0.0020000,-0.10000,-0.0000,-0.0000,-0.0000,0.0000
0.0050000,-0.0020000,-0.10000,-0.0000,-0.0000,-0.0000,0.0000
-0.0050000,-0.0010000,-0.10000,-0.0000,-0.0000,-0.0000,0.0000
-0.0040000,-0.0010000,-0.10000,-0.0000,-0.0000,-0.0000,0.0000
-0.0030000,-0.0010000,-0.10000,-0.0000,-0.0000,-0.0000,0.0000
-0.0020000,-0.0010000,-0.10000,-0.0000,-0.0000,-0.0000,0.0000
-0.0010000,-0.0010000,-0.10000,-0.0000,-0.0000,-0.0000,0.0000
-1.4997E-19,-0.0010000,-0.10000,-0.0000,-0.0000,-0.0000,0.0000
0.0010000,-0.0010000,-0.10000,-0.0000,-0.0000,-0.0000,0.0000
0.0020000,-0.0010000,-0.10000,-0.0000,-0.0000,-0.0000,0.0000
0.0030000,-0.0010000,-0.10000,-0.0000,-0.0000,-0.0000,0.0000
0.0040000,-0.0010000,-0.10000,-0.0000,-0.0000,-0.0000,0.0000
0.0050000,-0.0010000,-0.10000,-0.0000,-0.0000,-0.0000,0.0000
-0.0050000,-1.6263E-19,-0.10000,-0.0000,-0.0000,-0.0000,0.0000
-0.0040000,-3.7587E-20,-0.10000,-0.0000,-0.0000,-0.0000,0.0000
-0.0030000,3.0708E-21,-0.10000,-0.0000,-0.0000,-0.0000,0.0000
-0.0020000,-2.0329E-20,-0.10000,-0.0000,-0.0000,-0.0000,0.0000
-0.0010000,-6.3426E-20,-0.10000,-0.0000,-0.0000,-0.0000,0.0000
2.7444E-19,4.7434E-19,-0.10000,6.8820E-10,1.5461E-9,-1.1478E-8,5.4472E-12
0.0010000,-1.6664E-19,-0.10000,1.0944E-8,-6.4644E-10,-9.6183E-9,-3.5562E-25
0.0020000,-5.4210E-20,-0.10000,-0.0000,-0.0000,-0.0000,0.0000
0.0030000,7.5560E-20,-0.10000,-0.0000,-0.0000,-0.0000,0.0000
0.0040000,-9.8050E-21,-0.10000,-0.0000,-0.0000,-0.0000,0.0000
0.0050000,-8.1315E-20,-0.10000,-0.0000,-0.0000,-0.0000,0.0000
-0.0050000,0.0010000,-0.10000,-0.0000,-0.0000,-0.0000,0.0000
-0.0040000,0.0010000,-0.10000,-0.0000,-0.0000,-0.0000,0.0000
-0.0030000,0.0010000,-0.10000,-0.0000,-0.0000,-0.0000,0.0000
-0.0020000,0.0010000,-0.10000,-0.0000,-0.0000,-0.0000,0.0000
-0.0010000,0.0010000,-0.10000,-0.0000,-0.0000,-0.0000,0.0000
1.8010E-19,0.0010000,-0.10000,-0.0000,-0.0000,-0.0000,0.0000
0.0010000,0.0010000,-0.10000,-0.0000,-0.0000,-0.0000,0.0000
0.0020000,0.0010000,-0.10000,-0.0000,-0.0000,-0.0000,0.0000
0.0030000,0.0010000,-0.10000,-0.0000,-0.0000,-0.0000,0.0000
0.0040000,0.0010000,-0.10000,-0.0000,-0.0000,-0.0000,0.0000
0.0050000,0.0010000,-0.10000,-0.0000,-0.0000,-0.0000,0.0000
-0.0050000,0.0020000,-0.10000,-0.0000,-0.0000,-0.0000,0.0000
-0.0040000,0.0020000,-0.10000,-0.0000,-0.0000,-0.0000,0.0000
-0.0030000,0.0020000,-0.10000,-0.0000,-0.0000,-0.0000,0.0000
-0.0020000,0.0020000,-0.10000,-0.0000,-0.0000,-0.0000,0.0000
-0.0010000,0.0020000,-0.10000,-0.0000,-0.0000,-0.0000,0.0000
-2.7105E-20,0.0020000,-0.10000,-0.0000,-0.0000,-0.0000,0.0000
0.0010000,0.0020000,-0.10000,-0.0000,-0.0000,-0.0000,0.0000
0.0020000,0.0020000,-0.10000,-0.0000,-0.0000,-0.0000,0.0000
0.0030000,0.0020000,-0.10000,-0.0000,-0.0000,-0.0000,0.0000
0.0040000,0.0020000,-0.10000,-0.0000,-0.0000,-0.0000,0.0000
0.0050000,0.0020000,-0.10000,-0.0000,-0.0000,-0.0000,0.0000
-0.0050000,0.0030000,-0.10000,-0.0000,-0.0000,-0.0000,0.0000
-0.0040000,0.0030000,-0.10000,-0.0000,-0.0000,-0.0000,0.0000
-0.0030000,0.0030000,-0.10000,-0.0000,-0.0000,-0.0000,0.0000
-0.0020000,0.0030000,-0.10000,-0.0000,-0.0000,-0.0000,0.0000
-0.0010000,0.0030000,-0.10000,-0.0000,-0.0000,-0.0000,0.0000
-2.7105E-20,0.0030000,-0.10000,-0.0000,-0.0000,-0.0000,0.0000
0.0010000,0.0030000,-0.10000,-0.0000,-0.0000,-0.0000,0.0000
0.0020000,0.0030000,-0.10000,-0.0000,-0.0000,-0.0000,0.0000
0.0030000,0.0030000,-0.10000,-0.0000,-0.0000,-0.0000,0.0000
0.0040000,0.0030000,-0.10000,-0.0000,-0.0000,-0.0000,0.0000
0.0050000,0.0030000,-0.10000,-0.0000,-0.0000,-0.0000,0.0000
-0.0050000,0.0040000,-0.10000,-0.0000,-0.0000,-0.0000,0.0000
-0.0040000,0.0040000,-0.10000,-0.0000,-0.0000,-0.0000,0.0000
-0.0030000,0.0040000,-0.10000,-0.0000,-0.0000,-0.0000,0.0000
-0.0020000,0.0040000,-0.10000,-0.0000,-0.0000,-0.0000,0.0000
-0.0010000,0.0040000,-0.10000,-0.0000,-0.0000,-0.0000,0.0000
7.5856E-20,0.0040000,-0.10000,-0.0000,-0.0000,-0.0000,0.0000
0.0010000,0.0040000,-0.10000,-0.0000,-0.0000,-0.0000,0.0000
0.0020000,0.0040000,-0.10000,-0.0000,-0.0000,-0.0000,0.0000
0.0030000,0.0040000,-0.10000,-0.0000,-0.0000,-0.0000,0.0000
0.0040000,0.0040000,-0.10000,-0.0000,-0.0000,-0.0000,0.0000
0.0050000,0.0040000,-0.10000,-0.0000,-0.0000,-0.0000,0.0000
-0.0050000,0.0050000,-0.10000,-0.0000,-0.0000,-0.0000,0.0000
-0.0040000,0.0050000,-0.10000,-0.0000,-0.0000,-0.0000,0.0000
-0.0030000,0.0050000,-0.10000,-0.0000,-0.0000,-0.0000,0.0000
-0.0020000,0.0050000,-0.10000,-0.0000,-0.0000,-0.0000,0.0000
-0.0010000,0.0050000,-0.10000,-0.0000,-0.0000,-0.0000,0.0000
2.7105E-19,0.0050000,-0.10000,-0.0000,-0.0000,-0.0000,0.0000
0.0010000,0.0050000,-0.10000,-0.0000,-0.0000,-0.0000,0.0000
0.0020000,0.0050000,-0.10000,-0.0000,-0.0000,-0.0000,0.0000
0.0030000,0.0050000,-0.10000,-0.0000,-0.0000,-0.0000,0.0000
0.0040000,0.0050000,-0.10000,-0.0000,-0.0000,-0.0000,0.0000
0.0050000,0.0050000,-0.10000,-0.0000,-0.0000,-0.0000,0.0000
-0.0050000,-0.0050000,-0.099000,-2.0459E-22,-1.3890E-22,-1.7448E-8,4.8427E-25
-0.0040000,-0.0050000,-0.099000,-1.4497E-22,-2.0927E-22,-2.1546E-8,5.9803E-25
-0.0030000,-0.0050000,-0.099000,-1.2083E-22,-2.1374E-22,-2.6577E-8,7.3766E-25
-0.0020000,-0.0050000,-0.099000,-8.3866E-23,-2.2181E-22,-3.0413E-8,8.4412E-25
-0.0010000,-0.0050000,-0.099000,-3.9708E-23,-2.2827E-22,-3.2794E-8,9.1020E-25
-4.8052E-20,-0.0050000,-0.099000,-3.9708E-23,-2.2827E-22,-3.4224E-8,9.4991E-25
0.0010000,-0.0050000,-0.099000,9.4713E-23,-2.1682E-22,-3.3939E-8,9.6599E-25
0.0020000,-0.0050000,-0.099000,9.0617E-23,-2.0710E-22,-3.0723E-8,8.6086E-25
0.0030000,-0.0050000,-0.099000,9.0629E-23,-2.2034E-22,-2.7507E-8,7.7253E-25
0.0040000,-0.0050000,-0.099000,1.5773E-22,-1.7524E-22,-2.2238E-8,6.0917E-25
0.0050000,-0.0050000,-0.099000,1.5958E-22,-1.7863E-22,-1.6567E-8,4.5359E-25
-0.0050000,-0.0040000,-0.099000,-2.0459E-22,-1.3890E-22,-2.2452E-8,6.2316E-25
-0.0040000,-0.0040000,-0.099000,-1.8297E-22,-1.6577E-22,-2.8332E-8,7.8638E-25
-0.0030000,-0.0040000,-0.099000,-1.6216E-22,-1.6217E-22,-3.4060E-8,9.4536E-25
-0.0020000,-0.0040000,-0.099000,-1.4349E-22,-1.6917E-22,-3.9289E-8,1.0905E-24
-0.0010000,-0.0040000,-0.099000,-6.4055E-23,-2.1431E-22,-4.0772E-8,1.1316E-24
-8.6221E-20,-0.0040000,-0.099000,2.0771E-23,-2.2057E-22,-4.2121E-8,1.1691E-24
0.0010000,-0.0040000,-0.099000,5.4985E-23,-2.1365E-22,-4.0766E-8,1.1315E-24
0.0020000,-0.0040000,-0.099000,1.0155E-22,-1.9940E-22,-3.8399E-8,1.0658E-24
0.0030000,-0.0040000,-0.099000,1.6902E-22,-1.6198E-22,-3.4623E-8,9.6097E-25
0.0040000,-0.0040000,-0.099000,1.5683E-22,-1.7259E-22,-2.8719E-8,7.8622E-25
0.0050000,-0.0040000,-0.099000,1.9632E-22,-1.5780E-22,-2.2598E-8,6.2722E-25
-0.0050000,-0.0030000,-0.099000,-2.1325E-22,-1.1451E-22,-2.7119E-8,7.5270E-25
-0.0040000,-0.0030000,-0.099000,-2.1325E-22,-1.1451E-22,-3.4802E-8,9.6596E-25
-0.0030000,-0.0030000,-0.099000,-1.6095E-22,-1.4846E-22,-3.9864E-8,1.1064E-24
-0.0020000,-0.0030000,-0.099000,-1.3767E-22,-1.5347E-22,-4.5197E-8,1.2545E-24
-0.0010000,-0.0030000,-0.099000,-8.6682E-23,-2.0159E-22,-4.9439E-8,1.3722E-24
0.0000,-0.0030000,-0.099000,-1.0218E-23,-2.4511E-22,-5.1117E-8,1.4188E-24
0.0010000,-0.0030000,-0.099000,5.3460E-23,-2.1927E-22,-4.8565E-8,1.3479E-24
0.0020000,-0.0030000,-0.099000,1.2485E-22,-1.7811E-22,-4.5020E-8,1.2496E-24
0.0030000,-0.0030000,-0.099000,1.6902E-22,-1.6198E-22,-4.0459E-8,1.1230E-24
0.0040000,-0.0030000,-0.099000,1.7168E-22,-1.3895E-22,-3.4275E-8,9.5132E-25
0.0050000,-0.0030000,-0.099000,2.1603E-22,-1.0989E-22,-2.7327E-8,7.4658E-25
-0.0050000,-0.0020000,-0.099000,-2.1975E-22,-1.1156E-22,-3.0014E-8,8.3305E-25
-0.0040000,-0.0020000,-0.099000,-2.1975E-22,-1.1156E-22,-3.7931E-8,1.0528E-24
-0.0030000,-0.0020000,-0.099000,-1.7833E-22,-1.2858E-22,-4.5071E-8,1.2510E-24
-0.0020000,-0.0020000,-0.099000,-2.0472E-22,-1.3300E-22,-5.3647E-8,1.4890E-24
-0.0010000,-0.0020000,-0.099000,-8.5788E-23,-2.0870E-22,-5.6939E-8,1.5804E-24
1.6941E-21,-0.0020000,-0.099000,-2.2061E-21,1.2963E-21,-5.9974E-8,1.1530E-24
0.0010000,-0.0020000,-0.099000,1.9377E-21,-6.1492E-22,-5.9523E-8,2.0486E-24
0.0020000,-0.0020000,-0.099000,1.4263E-22,-1.6742E-22,-5.2552E-8,1.4586E-24
0.0030000,-0.0020000,-0.099000,1.8345E-22,-1.4612E-22,-4.5655E-8,1.2672E-24
0.0040000,-0.0020000,-0.099000,1.9148E-22,-1.2040E-22,-3.8898E-8,1.0796E-24
0.0050000,-0.0020000,-0.099000,2.1987E-22,-1.0876E-22,-3.1244E-8,8.6720E-25
-0.0050000,-0.0010000,-0.099000,-2.3756E-22,-3.8576E-23,-3.3099E-8,9.1868E-25
-0.0040000,-0.0010000,-0.099000,-2.0857E-22,-4.4627E-23,-4.0960E-8,1.1369E-24
-0.0030000,-0.0010000,-0.099000,-2.1267E-22,-4.2897E-23,-4.8568E-8,1.3480E-24
-0.0020000,-0.0010000,-0.099000,-1.0275E-21,-5.1647E-22,-5.8131E-8,1.6823E-24
-0.0010000,-0.0010000,-0.099000,-1.1364E-8,-1.2945E-8,-3.7297E-8,1.6053E-11
3.7269E-20,-0.0010000,-0.099000,1.3120E-9,-9.2089E-9,-3.4749E-8,2.2335E-11
0.0010000,-0.0010000,-0.099000,1.3631E-8,-1.1123E-8,-3.7610E-8,1.6266E-11
0.0020000,-0.0010000,-0.099000,2.3153E-22,-1.1153E-22,-5.7324E-8,1.5946E-24
0.0030000,-0.0010000,-0.099000,1.9768E-22,-8.0334E-23,-4.9030E-8,1.3609E-24
0.0040000,-0.0010000,-0.099000,2.1251E-22,-3.7230E-23,-4.1193E-8,1.1433E-24
0.0050000,-0.0010000,-0.099000,2.3336E-22,-4.3542E-23,-3.3059E-8,9.1757E-25
-0.0050000,-1.6263E-19,-0.099000,-2.1621E-22,9.6880E-24,-3.4563E-8,9.5932E-25
-0.0040000,-6.8487E-21,-0.099000,-2.1243E-22,-1.5554E-23,-4.2039E-8,1.1668E-24
-0.0030000,-2.7105E-20,-0.099000,-2.6738E-22,-2.3077E-23,-5.1358E-8,1.4255E-24
-0.0020000,5.5505E-20,-0.099000,1.9857E-21,-1.5986E-21,-5.7836E-8,1.7358E-24
-0.0010000,-8.4247E-21,-0.099000,-1.0069E-8,-2.0549E-10,-3.5718E-8,2.2323E-11
2.7105E-20,2.7105E-20,-0.099000,1.4953E-10,6.4989E-11,-3.3685E-8,2.7298E-11
0.0010000,-1.3553E-20,-0.099000,9.7723E-9,-3.3502E-10,-3.5093E-8,2.2333E-11
0.0020000,-1.5407E-32,-0.099000,4.2707E-21,-4.0706E-21,-6.1082E-8,2.6151E-24
0.0030000,5.4210E-20,-0.099000,2.9305E-22,1.6375E-23,-5.0524E-8,1.4023E-24
0.0040000,-1.2197E-19,-0.099000,2.1588E-22,3.3311E-23,-4.2129E-8,1.1693E-24
0.0050000,-1.8129E-19,-0.099000,2.2691E-22,2.6986E-23,-3.3897E-8,9.4084E-25
-0.0050000,0.0010000,-0.099000,-2.2710E-22,7.7256E-23,-3.3856E-8,9.3971E-25
-0.0040000,0.0010000,-0.099000,-2.1436E-22,4.4083E-23,-4.1754E-8,1.1589E-24
-0.0030000,0.0010000,-0.099000,-2.3822E-22,5.2457E-23,-4.8586E-8,1.3485E-24
-0.0020000,0.0010000,-0.099000,-2.3822E-22,5.2457E-23,-5.7169E-8,1.5868E-24
-0.0010000,0.0010000,-0.099000,-1.3089E-8,9.4672E-9,-3.7288E-8,1.6103E-11
-1.3553E-19,0.0010000,-0.099000,-1.7318E-10,1.1596E-8,-3.6054E-8,2.1835E-11
0.0010000,0.0010000,-0.099000,1.3361E-8,1.1187E-8,-3.7332E-8,1.6163E-11
0.0020000,0.0010000,-0.099000,2.2552E-22,1.5139E-22,-5.7294E-8,1.5902E-24
0.0030000,0.0010000,-0.099000,2.1392E-22,6.3084E-23,-4.8551E-8,1.3476E-24
0.0040000,0.0010000,-0.099000,2.1392E-22,6.3084E-23,-4.0844E-8,1.1336E-24
0.0050000,0.0010000,-0.099000,2.3167E-22,3.3930E-23,-3.2787E-8,9.1003E-25
-0.0050000,0.0020000,-0.099000,-2.2710E-22,7.7256E-23,-3.1073E-8,8.6245E-25
-0.0040000,0.0020000,-0.099000,-1.8721E-22,9.4014E-23,-3.8580E-8,1.0708E-24
-0.0030000,0.0020000,-0.099000,-1.6249E-22,1.3540E-22,-4.4790E-8,1.2432E-24
-0.0020000,0.0020000,-0.099000,-2.1626E-22,1.8337E-22,-5.2131E-8,1.4469E-24
-0.0010000,0.0020000,-0.099000,-2.3396E-21,-2.0075E-21,-5.6737E-8,3.9436E-25
4.1909E-19,0.0020000,-0.099000,2.9604E-21,-2.5738E-22,-6.0340E-8,-2.2768E-24
0.0010000,0.0020000,-0.099000,1.1338E-22,2.2923E-22,-5.6671E-8,1.5729E-24
0.0020000,0.0020000,-0.099000,1.1338E-22,2.2923E-22,-5.2587E-8,1.4596E-24
0.0030000,0.0020000,-0.099000,1.8077E-22,1.1767E-22,-4.5258E-8,1.2562E-24
0.0040000,0.0020000,-0.099000,2.0375E-22,9.9163E-23,-3.7590E-8,1.0433E-24
0.0050000,0.0020000,-0.099000,2.0375E-22,9.9163E-23,-3.0249E-8,8.3958E-25
-0.0050000,0.0030000,-0.099000,-1.9807E-22,1.4692E-22,-2.7010E-8,7.4967E-25
-0.0040000,0.0030000,-0.099000,-1.6385E-22,1.7588E-22,-3.4216E-8,9.4969E-25
-0.0030000,0.0030000,-0.099000,-1.7009E-22,1.3874E-22,-3.9912E-8,1.1078E-24
-0.0020000,0.0030000,-0.099000,-1.4108E-22,1.4982E-22,-4.5013E-8,1.2494E-24
-0.0010000,0.0030000,-0.099000,-6.8915E-23,2.0798E-22,-4.7957E-8,1.3311E-24
6.9397E-20,0.0030000,-0.099000,-3.4138E-23,2.0903E-22,-4.9716E-8,1.3799E-24
0.0010000,0.0030000,-0.099000,1.0265E-22,1.9832E-22,-4.8375E-8,1.3427E-24
0.0020000,0.0030000,-0.099000,1.1761E-22,1.6988E-22,-4.4475E-8,1.2344E-24
0.0030000,0.0030000,-0.099000,1.4338E-22,1.6384E-22,-3.9466E-8,1.0954E-24
0.0040000,0.0030000,-0.099000,2.0439E-22,1.2756E-22,-3.3120E-8,9.1925E-25
0.0050000,0.0030000,-0.099000,2.0142E-22,1.2677E-22,-2.6569E-8,7.3744E-25
-0.0050000,0.0040000,-0.099000,-1.9807E-22,1.4692E-22,-2.1716E-8,6.0274E-25
-0.0040000,0.0040000,-0.099000,-1.5900E-22,1.7255E-22,-2.7912E-8,7.7472E-25
-0.0030000,0.0040000,-0.099000,-1.4020E-22,1.8183E-22,-3.3581E-8,9.3207E-25
-0.0020000,0.0040000,-0.099000,-8.6884E-23,2.3011E-22,-3.8067E-8,1.0566E-24
-0.0010000,0.0040000,-0.099000,-6.8908E-23,2.1055E-22,-4.0430E-8,1.1222E-24
1.8575E-20,0.0040000,-0.099000,-3.6971E-23,2.1651E-22,-4.2146E-8,1.1698E-24
0.0010000,0.0040000,-0.099000,9.9501E-23,1.9175E-22,-4.1248E-8,1.1449E-24
0.0020000,0.0040000,-0.099000,9.9501E-23,1.9175E-22,-3.7663E-8,1.0454E-24
0.0030000,0.0040000,-0.099000,1.2615E-22,1.9894E-22,-3.3178E-8,9.2088E-25
0.0040000,0.0040000,-0.099000,2.0439E-22,1.2756E-22,-2.8524E-8,7.9170E-25
0.0050000,0.0040000,-0.099000,2.0520E-22,1.4879E-22,-2.1969E-8,6.0977E-25
-0.0050000,0.0050000,-0.099000,-1.5117E-22,1.9783E-22,-1.6393E-8,4.5500E-25
-0.0040000,0.0050000,-0.099000,-1.5117E-22,1.9783E-22,-2.1839E-8,6.0616E-25
-0.0030000,0.0050000,-0.099000,-8.4530E-23,2.2273E-22,-2.6716E-8,7.4152E-25
-0.0020000,0.0050000,-0.099000,-8.6884E-23,2.3011E-22,-2.9776E-8,8.2646E-25
-0.0010000,0.0050000,-0.099000,-6.8908E-23,2.1055E-22,-3.2844E-8,9.1161E-25
-5.4210E-20,0.0050000,-0.099000,1.9165E-23,2.3441E-22,-3.2960E-8,9.1483E-25
0.0010000,0.0050000,-0.099000,1.9165E-23,2.3441E-22,-3.2270E-8,8.9566E-25
0.0020000,0.0050000,-0.099000,1.2615E-22,1.9894E-22,-3.0556E-8,8.4810E-25
0.0030000,0.0050000,-0.099000,1.0176E-22,2.1725E-22,-2.6241E-8,7.2834E-25
0.0040000,0.0050000,-0.099000,1.5419E-22,1.9227E-22,-2.1157E-8,5.8722E-25
0.0050000,0.0050000,-0.099000,2.0520E-22,1.4879E-22,-1.6609E-8,4.6099E-25
-0.0050000,-0.0050000,-0.098000,-6.9238E-9,-6.3599E-9,-1.7364E-8,1.6682E-11
-0.0040000,-0.0050000,-0.098000,-5.3696E-9,-7.7147E-9,-2.3698E-8,2.2653E-11
-0.0030000,-0.0050000,-0.098000,-4.7301E-9,-8.6263E-9,-2.8979E-8,2.7702E-11
-0.0020000,-0.0050000,-0.098000,-3.4155E-9,-7.4711E-9,-3.3018E-8,3.1775E-11
-0.0010000,-0.0050000,-0.098000,-1.1603E-9,-7.2493E-9,-3.5727E-8,3.4183E-11
-1.0842E-19,-0.0050000,-0.098000,-6.2289E-10,-8.8666E-9,-3.5843E-8,3.5074E-11
0.0010000,-0.0050000,-0.098000,1.9007E-9,-8.2429E-9,-3.5178E-8,3.4254E-11
0.0020000,-0.0050000,-0.098000,3.3209E-9,-7.7353E-9,-3.2558E-8,3.1702E-11
0.0030000,-0.0050000,-0.098000,4.3082E-9,-7.7566E-9,-2.8263E-8,2.7988E-11
0.0040000,-0.0050000,-0.098000,5.6715E-9,-6.4811E-9,-2.3712E-8,2.2975E-11
0.0050000,-0.0050000,-0.098000,6.3819E-9,-6.0863E-9,-1.7463E-8,1.7100E-11
-0.0050000,-0.0040000,-0.098000,-7.0435E-9,-5.6159E-9,-2.3295E-8,2.2512E-11
-0.0040000,-0.0040000,-0.098000,-6.7083E-9,-6.0539E-9,-3.0332E-8,2.9267E-11
-0.0030000,-0.0040000,-0.098000,-5.3631E-9,-6.4589E-9,-3.6032E-8,3.5073E-11
-0.0020000,-0.0040000,-0.098000,-3.6080E-9,-7.4849E-9,-4.0063E-8,3.9357E-11
-0.0010000,-0.0040000,-0.098000,-1.4314E-9,-8.1251E-9,-4.2939E-8,4.2113E-11
5.4210E-20,-0.0040000,-0.098000,4.2262E-10,-7.9773E-9,-4.3938E-8,4.3051E-11
0.0010000,-0.0040000,-0.098000,1.9810E-9,-7.6976E-9,-4.3210E-8,4.1988E-11
0.0020000,-0.0040000,-0.098000,4.2183E-9,-7.3712E-9,-4.0412E-8,3.9317E-11
0.0030000,-0.0040000,-0.098000,4.9138E-9,-6.5242E-9,-3.5564E-8,3.5136E-11
0.0040000,-0.0040000,-0.098000,5.8253E-9,-6.3002E-9,-3.0436E-8,2.9530E-11
0.0050000,-0.0040000,-0.098000,7.0661E-9,-5.7002E-9,-2.3429E-8,2.3065E-11
-0.0050000,-0.0030000,-0.098000,-7.7537E-9,-3.9989E-9,-2.8570E-8,2.7585E-11
-0.0040000,-0.0030000,-0.098000,-6.8262E-9,-4.8250E-9,-3.6058E-8,3.5076E-11
-0.0030000,-0.0030000,-0.098000,-5.8425E-9,-5.8427E-9,-4.1876E-8,4.0890E-11
-0.0020000,-0.0030000,-0.098000,-4.7012E-9,-6.3304E-9,-4.7087E-8,4.6133E-11
-0.0010000,-0.0030000,-0.098000,-1.8490E-9,-6.5941E-9,-4.9879E-8,4.9391E-11
1.3553E-20,-0.0030000,-0.098000,4.3645E-10,-7.7958E-9,-5.1066E-8,5.0720E-11
0.0010000,-0.0030000,-0.098000,2.0676E-9,-7.0092E-9,-4.9924E-8,4.9601E-11
0.0020000,-0.0030000,-0.098000,4.4984E-9,-6.4170E-9,-4.7209E-8,4.6115E-11
0.0030000,-0.0030000,-0.098000,5.6952E-9,-5.8188E-9,-4.2090E-8,4.1276E-11
0.0040000,-0.0030000,-0.098000,6.4675E-9,-4.2630E-9,-3.5808E-8,3.5073E-11
0.0050000,-0.0030000,-0.098000,7.6749E-9,-4.0235E-9,-2.8597E-8,2.8001E-11
-0.0050000,-0.0020000,-0.098000,-7.8754E-9,-3.9513E-9,-3.2777E-8,3.1447E-11
-0.0040000,-0.0020000,-0.098000,-7.4697E-9,-4.1313E-9,-4.0528E-8,3.9302E-11
-0.0030000,-0.0020000,-0.098000,-6.1363E-9,-5.0795E-9,-4.7620E-8,4.6092E-11
-0.0020000,-0.0020000,-0.098000,-5.1652E-9,-5.1134E-9,-5.1763E-8,5.2031E-11
-0.0010000,-0.0020000,-0.098000,-8.8893E-9,-6.4025E-9,-5.2390E-8,5.6739E-11
2.7105E-20,-0.0020000,-0.098000,2.7308E-10,-7.9696E-9,-5.3922E-8,5.8429E-11
0.0010000,-0.0020000,-0.098000,3.3644E-9,-7.4116E-9,-5.3076E-8,5.6526E-11
0.0020000,-0.0020000,-0.098000,5.0473E-9,-5.1330E-9,-5.1743E-8,5.2168E-11
0.0030000,-0.0020000,-0.098000,6.4815E-9,-3.9105E-9,-4.5681E-8,4.6117E-11
0.0040000,-0.0020000,-0.098000,6.8911E-9,-3.5537E-9,-3.9857E-8,3.9288E-11
0.0050000,-0.0020000,-0.098000,7.9757E-9,-3.1387E-9,-3.2256E-8,3.1834E-11
-0.0050000,-0.0010000,-0.098000,-8.7287E-9,-1.4825E-9,-3.4919E-8,3.3820E-11
-0.0040000,-0.0010000,-0.098000,-8.4307E-9,-1.4547E-9,-4.3521E-8,4.2150E-11
-0.0030000,-0.0010000,-0.098000,-6.9568E-9,-2.0904E-9,-4.9930E-8,4.9555E-11
-0.0020000,-0.0010000,-0.098000,-7.0480E-9,-6.3226E-9,-5.2963E-8,5.6557E-11
-0.0010000,-0.0010000,-0.098000,-5.6660E-9,-5.9292E-9,-5.2064E-8,6.3543E-11
5.2516E-20,-0.0010000,-0.098000,1.0237E-9,-5.5167E-9,-5.3142E-8,6.6225E-11
0.0010000,-0.0010000,-0.098000,5.8772E-9,-5.9323E-9,-5.2021E-8,6.3260E-11
0.0020000,-0.0010000,-0.098000,7.5312E-9,-3.1064E-9,-5.3133E-8,5.6324E-11
0.0030000,-0.0010000,-0.098000,6.9066E-9,-2.3270E-9,-4.8459E-8,4.9202E-11
0.0040000,-0.0010000,-0.098000,7.6566E-9,-1.3414E-9,-4.2806E-8,4.1999E-11
0.0050000,-0.0010000,-0.098000,8.4427E-9,-1.6079E-9,-3.5043E-8,3.4077E-11
-0.0050000,1.2197E-19,-0.098000,-8.2798E-9,-1.5168E-10,-3.5873E-8,3.4967E-11
-0.0040000,1.3553E-19,-0.098000,-7.6171E-9,2.2628E-10,-4.3614E-8,4.2945E-11
-0.0030000,-8.1315E-20,-0.098000,-7.2288E-9,5.1761E-10,-5.0759E-8,5.0348E-11
-0.0020000,-1.3553E-20,-0.098000,-8.7746E-9,-1.0537E-10,-5.3549E-8,5.8515E-11
-0.0010000,-2.7105E-20,-0.098000,-5.9863E-9,1.6394E-9,-5.1494E-8,6.6009E-11
2.6893E-20,1.2176E-19,-0.098000,-7.8205E-10,3.8093E-11,-5.0060E-8,6.9435E-11
0.0010000,0.0000,-0.098000,5.9741E-9,-5.6817E-10,-5.0767E-8,6.6542E-11
0.0020000,2.0329E-20,-0.098000,9.8522E-9,-2.0373E-9,-5.1093E-8,5.8765E-11
0.0030000,5.4210E-20,-0.098000,7.8929E-9,-2.1661E-10,-5.0534E-8,5.0446E-11
0.0040000,3.3881E-20,-0.098000,7.6621E-9,2.5960E-10,-4.3558E-8,4.2901E-11
0.0050000,-3.3881E-20,-0.098000,8.1009E-9,5.1256E-10,-3.5635E-8,3.4854E-11
-0.0050000,0.0010000,-0.098000,-8.1974E-9,1.8685E-9,-3.4364E-8,3.4431E-11
-0.0040000,0.0010000,-0.098000,-7.2030E-9,2.3494E-9,-4.1840E-8,4.1772E-11
-0.0030000,0.0010000,-0.098000,-6.7636E-9,2.2370E-9,-4.9490E-8,4.8768E-11
-0.0020000,0.0010000,-0.098000,-8.1268E-9,3.8772E-9,-5.3894E-8,5.5885E-11
-0.0010000,0.0010000,-0.098000,-6.2648E-9,5.9600E-9,-5.0920E-8,6.2932E-11
0.0000,0.0010000,-0.098000,-9.1635E-10,6.7483E-9,-5.0214E-8,6.6440E-11
0.0010000,0.0010000,-0.098000,5.6779E-9,6.6099E-9,-5.1768E-8,6.3866E-11
0.0020000,0.0010000,-0.098000,6.0415E-9,2.8302E-9,-5.0793E-8,5.6759E-11
0.0030000,0.0010000,-0.098000,7.6399E-9,2.7970E-9,-4.9680E-8,4.9276E-11
0.0040000,0.0010000,-0.098000,7.4176E-9,1.7787E-9,-4.2701E-8,4.1812E-11
0.0050000,0.0010000,-0.098000,8.5156E-9,1.2220E-9,-3.4900E-8,3.3812E-11
-0.0050000,0.0020000,-0.098000,-8.1867E-9,2.8054E-9,-3.2416E-8,3.1481E-11
-0.0040000,0.0020000,-0.098000,-6.9283E-9,3.6590E-9,-3.9560E-8,3.9038E-11
-0.0030000,0.0020000,-0.098000,-6.1124E-9,4.1258E-9,-4.5897E-8,4.5419E-11
-0.0020000,0.0020000,-0.098000,-5.4022E-9,4.9051E-9,-5.1487E-8,5.1262E-11
-0.0010000,0.0020000,-0.098000,-3.8668E-9,8.0479E-9,-5.4428E-8,5.5957E-11
0.0000,0.0020000,-0.098000,-3.5767E-10,6.6055E-9,-5.1059E-8,5.7903E-11
0.0010000,0.0020000,-0.098000,4.0776E-9,8.7386E-9,-5.4417E-8,5.6421E-11
0.0020000,0.0020000,-0.098000,5.4478E-9,5.5814E-9,-5.1783E-8,5.1727E-11
0.0030000,0.0020000,-0.098000,6.0528E-9,4.2931E-9,-4.6706E-8,4.5854E-11
0.0040000,0.0020000,-0.098000,7.9102E-9,3.6846E-9,-4.0256E-8,3.8901E-11
0.0050000,0.0020000,-0.098000,7.2503E-9,3.4601E-9,-3.2579E-8,3.1471E-11
-0.0050000,0.0030000,-0.098000,-7.6185E-9,4.6959E-9,-2.8279E-8,2.7720E-11
-0.0040000,0.0030000,-0.098000,-6.3315E-9,5.0206E-9,-3.5265E-8,3.4718E-11
-0.0030000,0.0030000,-0.098000,-4.9751E-9,5.5424E-9,-4.1360E-8,4.0673E-11
-0.0020000,0.0030000,-0.098000,-4.2416E-9,6.3127E-9,-4.6150E-8,4.5640E-11
-0.0010000,0.0030000,-0.098000,-2.3839E-9,6.9116E-9,-4.8954E-8,4.8621E-11
-5.4210E-20,0.0030000,-0.098000,-7.2380E-10,6.9844E-9,-5.0370E-8,4.9789E-11
0.0010000,0.0030000,-0.098000,2.6828E-9,6.7875E-9,-4.9566E-8,4.8726E-11
0.0020000,0.0030000,-0.098000,3.6985E-9,7.1451E-9,-4.5973E-8,4.5325E-11
0.0030000,0.0030000,-0.098000,4.6985E-9,5.8873E-9,-4.1938E-8,4.0512E-11
0.0040000,0.0030000,-0.098000,7.3089E-9,4.7216E-9,-3.5816E-8,3.4509E-11
0.0050000,0.0030000,-0.098000,7.3049E-9,4.5730E-9,-2.8237E-8,2.7166E-11
-0.0050000,0.0040000,-0.098000,-7.1284E-9,5.5072E-9,-2.3176E-8,2.2505E-11
-0.0040000,0.0040000,-0.098000,-5.7287E-9,6.2167E-9,-2.9697E-8,2.8804E-11
-0.0030000,0.0040000,-0.098000,-5.0512E-9,6.5510E-9,-3.5172E-8,3.4377E-11
-0.0020000,0.0040000,-0.098000,-3.3588E-9,7.1997E-9,-3.9626E-8,3.8977E-11
-0.0010000,0.0040000,-0.098000,-1.3320E-9,7.8007E-9,-4.1693E-8,4.1254E-11
-1.3553E-20,0.0040000,-0.098000,-2.4673E-10,7.8009E-9,-4.2918E-8,4.2394E-11
0.0010000,0.0040000,-0.098000,1.8781E-9,7.4901E-9,-4.2145E-8,4.1587E-11
0.0020000,0.0040000,-0.098000,4.3511E-9,6.4086E-9,-4.0157E-8,3.8360E-11
0.0030000,0.0040000,-0.098000,4.4461E-9,6.5009E-9,-3.5294E-8,3.4411E-11
0.0040000,0.0040000,-0.098000,6.1134E-9,6.5050E-9,-2.9922E-8,2.9133E-11
0.0050000,0.0040000,-0.098000,7.2948E-9,5.4184E-9,-2.2977E-8,2.2442E-11
-0.0050000,0.0050000,-0.098000,-6.5613E-9,6.5613E-9,-1.6944E-8,1.6683E-11
-0.0040000,0.0050000,-0.098000,-5.5292E-9,6.9373E-9,-2.3024E-8,2.2365E-11
-0.0030000,0.0050000,-0.098000,-4.3927E-9,7.9982E-9,-2.8250E-8,2.7612E-11
-0.0020000,0.0050000,-0.098000,-3.1303E-9,8.2907E-9,-3.2145E-8,3.0960E-11
-0.0010000,0.0050000,-0.098000,-1.8270E-9,7.9463E-9,-3.4449E-8,3.3735E-11
-2.7105E-20,0.0050000,-0.098000,4.6571E-10,8.3608E-9,-3.5367E-8,3.4239E-11
0.0010000,0.0050000,-0.098000,9.1686E-10,8.3580E-9,-3.4657E-8,3.3611E-11
0.0020000,0.0050000,-0.098000,4.2248E-9,7.8485E-9,-3.2042E-8,3.1166E-11
0.0030000,0.0050000,-0.098000,3.7611E-9,7.9099E-9,-2.8140E-8,2.7173E-11
0.0040000,0.0050000,-0.098000,6.3400E-9,7.0212E-9,-2.3059E-8,2.2152E-11
0.0050000,0.0050000,-0.098000,5.9631E-9,6.5864E-9,-1.7036E-8,1.6439E-11
-0.0050000,-0.0050000,-0.097000,-1.3494E-8,-1.3405E-8,-1.8695E-8,3.4711E-11
-0.0040000,-0.0050000,-0.097000,-1.1311E-8,-1.4142E-8,-2.5402E-8,4.7203E-11
-0.0030000,-0.0050000,-0.097000,-9.4073E-9,-1.5213E-8,-3.0784E-8,5.7644E-11
-0.0020000,-0.0050000,-0.097000,-6.5840E-9,-1.6441E-8,-3.5179E-8,6.5658E-11
-0.0010000,-0.0050000,-0.097000,-2.7834E-9,-1.6932E-8,-3.7850E-8,7.0316E-11
0.0000,-0.0050000,-0.097000,-4.4727E-10,-1.7251E-8,-3.9082E-8,7.1850E-11
0.0010000,-0.0050000,-0.097000,3.0976E-9,-1.6738E-8,-3.8889E-8,7.0864E-11
0.0020000,-0.0050000,-0.097000,6.7306E-9,-1.6157E-8,-3.5642E-8,6.5541E-11
0.0030000,-0.0050000,-0.097000,9.2373E-9,-1.5222E-8,-3.1263E-8,5.7458E-11
0.0040000,-0.0050000,-0.097000,1.0622E-8,-1.4791E-8,-2.5628E-8,4.7290E-11
0.0050000,-0.0050000,-0.097000,1.3349E-8,-1.3015E-8,-1.8745E-8,3.4910E-11
-0.0050000,-0.0040000,-0.097000,-1.4770E-8,-1.2119E-8,-2.6158E-8,4.6957E-11
-0.0040000,-0.0040000,-0.097000,-1.2697E-8,-1.2560E-8,-3.2412E-8,6.0645E-11
-0.0030000,-0.0040000,-0.097000,-9.9734E-9,-1.3502E-8,-3.7888E-8,7.2034E-11
-0.0020000,-0.0040000,-0.097000,-7.9056E-9,-1.4187E-8,-4.4167E-8,8.0974E-11
-0.0010000,-0.0040000,-0.097000,-3.3455E-9,-1.5218E-8,-4.6880E-8,8.6563E-11
-2.4395E-19,-0.0040000,-0.097000,-8.1334E-11,-1.5786E-8,-4.7917E-8,8.8276E-11
0.0010000,-0.0040000,-0.097000,3.8449E-9,-1.5092E-8,-4.7356E-8,8.6779E-11
0.0020000,-0.0040000,-0.097000,7.4783E-9,-1.4264E-8,-4.4002E-8,8.1034E-11
0.0030000,-0.0040000,-0.097000,1.0233E-8,-1.3779E-8,-3.9515E-8,7.1889E-11
0.0040000,-0.0040000,-0.097000,1.2465E-8,-1.2636E-8,-3.3073E-8,6.0841E-11
0.0050000,-0.0040000,-0.097000,1.4593E-8,-1.1462E-8,-2.5360E-8,4.6983E-11
-0.0050000,-0.0030000,-0.097000,-1.5671E-8,-8.9784E-9,-3.1247E-8,5.7506E-11
-0.0040000,-0.0030000,-0.097000,-1.3501E-8,-1.0101E-8,-3.8010E-8,7.2110E-11
-0.0030000,-0.0030000,-0.097000,-1.1312E-8,-1.1450E-8,-4.5623E-8,8.4558E-11
-0.0020000,-0.0030000,-0.097000,-8.4698E-9,-1.2613E-8,-5.0963E-8,9.4366E-11
-0.0010000,-0.0030000,-0.097000,-3.4188E-9,-1.2446E-8,-5.3284E-8,1.0099E-10
6.7763E-21,-0.0030000,-0.097000,4.3853E-10,-1.2754E-8,-5.4775E-8,1.0283E-10
0.0010000,-0.0030000,-0.097000,4.2061E-9,-1.2372E-8,-5.3479E-8,1.0040E-10
0.0020000,-0.0030000,-0.097000,8.3202E-9,-1.3158E-8,-4.9154E-8,9.4349E-11
0.0030000,-0.0030000,-0.097000,1.0767E-8,-1.1518E-8,-4.5928E-8,8.4850E-11
0.0040000,-0.0030000,-0.097000,1.4077E-8,-9.9271E-9,-3.9454E-8,7.2483E-11
0.0050000,-0.0030000,-0.097000,1.5379E-8,-9.1420E-9,-3.1460E-8,5.7617E-11
-0.0050000,-0.0020000,-0.097000,-1.7121E-8,-7.5832E-9,-3.5266E-8,6.5637E-11
-0.0040000,-0.0020000,-0.097000,-1.3734E-8,-6.7412E-9,-4.1617E-8,8.0589E-11
-0.0030000,-0.0020000,-0.097000,-1.3366E-8,-8.2936E-9,-5.0227E-8,9.3962E-11
-0.0020000,-0.0020000,-0.097000,-8.5465E-9,-9.4636E-9,-5.4520E-8,1.0458E-10
-0.0010000,-0.0020000,-0.097000,-5.6812E-9,-1.0295E-8,-5.7545E-8,1.1175E-10
8.1315E-20,-0.0020000,-0.097000,6.2801E-10,-1.0347E-8,-5.9341E-8,1.1411E-10
0.0010000,-0.0020000,-0.097000,4.4356E-9,-9.2216E-9,-5.8424E-8,1.1157E-10
0.0020000,-0.0020000,-0.097000,8.7756E-9,-8.7469E-9,-5.5017E-8,1.0514E-10
0.0030000,-0.0020000,-0.097000,1.3018E-8,-7.8105E-9,-5.1087E-8,9.4299E-11
0.0040000,-0.0020000,-0.097000,1.4839E-8,-7.0458E-9,-4.4019E-8,8.0603E-11
0.0050000,-0.0020000,-0.097000,1.5681E-8,-6.5943E-9,-3.6169E-8,6.5224E-11
-0.0050000,-0.0010000,-0.097000,-1.6666E-8,-2.9660E-9,-3.8423E-8,7.0491E-11
-0.0040000,-0.0010000,-0.097000,-1.4386E-8,-3.7467E-9,-4.5794E-8,8.5833E-11
-0.0030000,-0.0010000,-0.097000,-1.2817E-8,-4.6212E-9,-5.3012E-8,1.0042E-10
-0.0020000,-0.0010000,-0.097000,-1.0739E-8,-5.0976E-9,-5.6412E-8,1.1173E-10
-0.0010000,-0.0010000,-0.097000,-5.0625E-9,-6.2341E-9,-5.9649E-8,1.1941E-10
-2.7105E-20,-0.0010000,-0.097000,1.8085E-11,-5.3442E-9,-6.0818E-8,1.2237E-10
0.0010000,-0.0010000,-0.097000,5.8141E-9,-5.3368E-9,-6.0830E-8,1.1942E-10
0.0020000,-0.0010000,-0.097000,1.0363E-8,-4.5796E-9,-5.8520E-8,1.1170E-10